<?xml version="1.0"?>
<VTKFile type="UnstructuredGrid"  version="0.1"  >
<UnstructuredGrid>
<Piece  NumberOfPoints="343" NumberOfCells="1296">
<Points>
<DataArray  type="Float64"  NumberOfComponents="3"  format="ascii">0 0 0  0.1666666666666667 0 0  0.3333333333333333 0 0  0.5 0 0  0.6666666666666666 0 0  0.8333333333333334 0 0  1 0 0  0 0.1666666666666667 0  0.1666666666666667 0.1666666666666667 0  0.3333333333333333 0.1666666666666667 0  0.5 0.1666666666666667 0  0.6666666666666666 0.1666666666666667 0  0.8333333333333334 0.1666666666666667 0  1 0.1666666666666667 0  0 0.3333333333333333 0  0.1666666666666667 0.3333333333333333 0  0.3333333333333333 0.3333333333333333 0  0.5 0.3333333333333333 0  0.6666666666666666 0.3333333333333333 0  0.8333333333333334 0.3333333333333333 0  1 0.3333333333333333 0  0 0.5 0  0.1666666666666667 0.5 0  0.3333333333333333 0.5 0  0.5 0.5 0  0.6666666666666666 0.5 0  0.8333333333333334 0.5 0  1 0.5 0  0 0.6666666666666666 0  0.1666666666666667 0.6666666666666666 0  0.3333333333333333 0.6666666666666666 0  0.5 0.6666666666666666 0  0.6666666666666666 0.6666666666666666 0  0.8333333333333334 0.6666666666666666 0  1 0.6666666666666666 0  0 0.8333333333333334 0  0.1666666666666667 0.8333333333333334 0  0.3333333333333333 0.8333333333333334 0  0.5 0.8333333333333334 0  0.6666666666666666 0.8333333333333334 0  0.8333333333333334 0.8333333333333334 0  1 0.8333333333333334 0  0 1 0  0.1666666666666667 1 0  0.3333333333333333 1 0  0.5 1 0  0.6666666666666666 1 0  0.8333333333333334 1 0  1 1 0  0 0 0.1666666666666667  0.1666666666666667 0 0.1666666666666667  0.3333333333333333 0 0.1666666666666667  0.5 0 0.1666666666666667  0.6666666666666666 0 0.1666666666666667  0.8333333333333334 0 0.1666666666666667  1 0 0.1666666666666667  0 0.1666666666666667 0.1666666666666667  0.1666666666666667 0.1666666666666667 0.1666666666666667  0.3333333333333333 0.1666666666666667 0.1666666666666667  0.5 0.1666666666666667 0.1666666666666667  0.6666666666666666 0.1666666666666667 0.1666666666666667  0.8333333333333334 0.1666666666666667 0.1666666666666667  1 0.1666666666666667 0.1666666666666667  0 0.3333333333333333 0.1666666666666667  0.1666666666666667 0.3333333333333333 0.1666666666666667  0.3333333333333333 0.3333333333333333 0.1666666666666667  0.5 0.3333333333333333 0.1666666666666667  0.6666666666666666 0.3333333333333333 0.1666666666666667  0.8333333333333334 0.3333333333333333 0.1666666666666667  1 0.3333333333333333 0.1666666666666667  0 0.5 0.1666666666666667  0.1666666666666667 0.5 0.1666666666666667  0.3333333333333333 0.5 0.1666666666666667  0.5 0.5 0.1666666666666667  0.6666666666666666 0.5 0.1666666666666667  0.8333333333333334 0.5 0.1666666666666667  1 0.5 0.1666666666666667  0 0.6666666666666666 0.1666666666666667  0.1666666666666667 0.6666666666666666 0.1666666666666667  0.3333333333333333 0.6666666666666666 0.1666666666666667  0.5 0.6666666666666666 0.1666666666666667  0.6666666666666666 0.6666666666666666 0.1666666666666667  0.8333333333333334 0.6666666666666666 0.1666666666666667  1 0.6666666666666666 0.1666666666666667  0 0.8333333333333334 0.1666666666666667  0.1666666666666667 0.8333333333333334 0.1666666666666667  0.3333333333333333 0.8333333333333334 0.1666666666666667  0.5 0.8333333333333334 0.1666666666666667  0.6666666666666666 0.8333333333333334 0.1666666666666667  0.8333333333333334 0.8333333333333334 0.1666666666666667  1 0.8333333333333334 0.1666666666666667  0 1 0.1666666666666667  0.1666666666666667 1 0.1666666666666667  0.3333333333333333 1 0.1666666666666667  0.5 1 0.1666666666666667  0.6666666666666666 1 0.1666666666666667  0.8333333333333334 1 0.1666666666666667  1 1 0.1666666666666667  0 0 0.3333333333333333  0.1666666666666667 0 0.3333333333333333  0.3333333333333333 0 0.3333333333333333  0.5 0 0.3333333333333333  0.6666666666666666 0 0.3333333333333333  0.8333333333333334 0 0.3333333333333333  1 0 0.3333333333333333  0 0.1666666666666667 0.3333333333333333  0.1666666666666667 0.1666666666666667 0.3333333333333333  0.3333333333333333 0.1666666666666667 0.3333333333333333  0.5 0.1666666666666667 0.3333333333333333  0.6666666666666666 0.1666666666666667 0.3333333333333333  0.8333333333333334 0.1666666666666667 0.3333333333333333  1 0.1666666666666667 0.3333333333333333  0 0.3333333333333333 0.3333333333333333  0.1666666666666667 0.3333333333333333 0.3333333333333333  0.3333333333333333 0.3333333333333333 0.3333333333333333  0.5 0.3333333333333333 0.3333333333333333  0.6666666666666666 0.3333333333333333 0.3333333333333333  0.8333333333333334 0.3333333333333333 0.3333333333333333  1 0.3333333333333333 0.3333333333333333  0 0.5 0.3333333333333333  0.1666666666666667 0.5 0.3333333333333333  0.3333333333333333 0.5 0.3333333333333333  0.5 0.5 0.3333333333333333  0.6666666666666666 0.5 0.3333333333333333  0.8333333333333334 0.5 0.3333333333333333  1 0.5 0.3333333333333333  0 0.6666666666666666 0.3333333333333333  0.1666666666666667 0.6666666666666666 0.3333333333333333  0.3333333333333333 0.6666666666666666 0.3333333333333333  0.5 0.6666666666666666 0.3333333333333333  0.6666666666666666 0.6666666666666666 0.3333333333333333  0.8333333333333334 0.6666666666666666 0.3333333333333333  1 0.6666666666666666 0.3333333333333333  0 0.8333333333333334 0.3333333333333333  0.1666666666666667 0.8333333333333334 0.3333333333333333  0.3333333333333333 0.8333333333333334 0.3333333333333333  0.5 0.8333333333333334 0.3333333333333333  0.6666666666666666 0.8333333333333334 0.3333333333333333  0.8333333333333334 0.8333333333333334 0.3333333333333333  1 0.8333333333333334 0.3333333333333333  0 1 0.3333333333333333  0.1666666666666667 1 0.3333333333333333  0.3333333333333333 1 0.3333333333333333  0.5 1 0.3333333333333333  0.6666666666666666 1 0.3333333333333333  0.8333333333333334 1 0.3333333333333333  1 1 0.3333333333333333  0 0 0.5  0.1666666666666667 0 0.5  0.3333333333333333 0 0.5  0.5 0 0.5  0.6666666666666666 0 0.5  0.8333333333333334 0 0.5  1 0 0.5  0 0.1666666666666667 0.5  0.1666666666666667 0.1666666666666667 0.5  0.3333333333333333 0.1666666666666667 0.5  0.5 0.1666666666666667 0.5  0.6666666666666666 0.1666666666666667 0.5  0.8333333333333334 0.1666666666666667 0.5  1 0.1666666666666667 0.5  0 0.3333333333333333 0.5  0.1666666666666667 0.3333333333333333 0.5  0.3333333333333333 0.3333333333333333 0.5  0.5 0.3333333333333333 0.5  0.6666666666666666 0.3333333333333333 0.5  0.8333333333333334 0.3333333333333333 0.5  1 0.3333333333333333 0.5  0 0.5 0.5  0.1666666666666667 0.5 0.5  0.3333333333333333 0.5 0.5  0.5 0.5 0.5  0.6666666666666666 0.5 0.5  0.8333333333333334 0.5 0.5  1 0.5 0.5  0 0.6666666666666666 0.5  0.1666666666666667 0.6666666666666666 0.5  0.3333333333333333 0.6666666666666666 0.5  0.5 0.6666666666666666 0.5  0.6666666666666666 0.6666666666666666 0.5  0.8333333333333334 0.6666666666666666 0.5  1 0.6666666666666666 0.5  0 0.8333333333333334 0.5  0.1666666666666667 0.8333333333333334 0.5  0.3333333333333333 0.8333333333333334 0.5  0.5 0.8333333333333334 0.5  0.6666666666666666 0.8333333333333334 0.5  0.8333333333333334 0.8333333333333334 0.5  1 0.8333333333333334 0.5  0 1 0.5  0.1666666666666667 1 0.5  0.3333333333333333 1 0.5  0.5 1 0.5  0.6666666666666666 1 0.5  0.8333333333333334 1 0.5  1 1 0.5  0 0 0.6666666666666666  0.1666666666666667 0 0.6666666666666666  0.3333333333333333 0 0.6666666666666666  0.5 0 0.6666666666666666  0.6666666666666666 0 0.6666666666666666  0.8333333333333334 0 0.6666666666666666  1 0 0.6666666666666666  0 0.1666666666666667 0.6666666666666666  0.1666666666666667 0.1666666666666667 0.6666666666666666  0.3333333333333333 0.1666666666666667 0.6666666666666666  0.5 0.1666666666666667 0.6666666666666666  0.6666666666666666 0.1666666666666667 0.6666666666666666  0.8333333333333334 0.1666666666666667 0.6666666666666666  1 0.1666666666666667 0.6666666666666666  0 0.3333333333333333 0.6666666666666666  0.1666666666666667 0.3333333333333333 0.6666666666666666  0.3333333333333333 0.3333333333333333 0.6666666666666666  0.5 0.3333333333333333 0.6666666666666666  0.6666666666666666 0.3333333333333333 0.6666666666666666  0.8333333333333334 0.3333333333333333 0.6666666666666666  1 0.3333333333333333 0.6666666666666666  0 0.5 0.6666666666666666  0.1666666666666667 0.5 0.6666666666666666  0.3333333333333333 0.5 0.6666666666666666  0.5 0.5 0.6666666666666666  0.6666666666666666 0.5 0.6666666666666666  0.8333333333333334 0.5 0.6666666666666666  1 0.5 0.6666666666666666  0 0.6666666666666666 0.6666666666666666  0.1666666666666667 0.6666666666666666 0.6666666666666666  0.3333333333333333 0.6666666666666666 0.6666666666666666  0.5 0.6666666666666666 0.6666666666666666  0.6666666666666666 0.6666666666666666 0.6666666666666666  0.8333333333333334 0.6666666666666666 0.6666666666666666  1 0.6666666666666666 0.6666666666666666  0 0.8333333333333334 0.6666666666666666  0.1666666666666667 0.8333333333333334 0.6666666666666666  0.3333333333333333 0.8333333333333334 0.6666666666666666  0.5 0.8333333333333334 0.6666666666666666  0.6666666666666666 0.8333333333333334 0.6666666666666666  0.8333333333333334 0.8333333333333334 0.6666666666666666  1 0.8333333333333334 0.6666666666666666  0 1 0.6666666666666666  0.1666666666666667 1 0.6666666666666666  0.3333333333333333 1 0.6666666666666666  0.5 1 0.6666666666666666  0.6666666666666666 1 0.6666666666666666  0.8333333333333334 1 0.6666666666666666  1 1 0.6666666666666666  0 0 0.8333333333333334  0.1666666666666667 0 0.8333333333333334  0.3333333333333333 0 0.8333333333333334  0.5 0 0.8333333333333334  0.6666666666666666 0 0.8333333333333334  0.8333333333333334 0 0.8333333333333334  1 0 0.8333333333333334  0 0.1666666666666667 0.8333333333333334  0.1666666666666667 0.1666666666666667 0.8333333333333334  0.3333333333333333 0.1666666666666667 0.8333333333333334  0.5 0.1666666666666667 0.8333333333333334  0.6666666666666666 0.1666666666666667 0.8333333333333334  0.8333333333333334 0.1666666666666667 0.8333333333333334  1 0.16666666666
[...]
<PointData  Vectors="f_25"> 
<DataArray  type="Float64"  Name="mode1"  NumberOfComponents="3" format="ascii"> -0.0238154922307 -0.0238154922307 0.0 -0.0233655349544 -0.0240673809716 0.0 -0.0218111343682 -0.0256651383071 0.0 -0.0186139146164 -0.0281292355553 0.0 -0.0136131428236 -0.0307189506885 0.0 -0.00714688313721 -0.0326223943464 0.0 0.0 -0.0330916139887 0.0 -0.0240673809716 -0.0233655349544 0.0 -0.0232054737096 -0.0232054737096 0.0 -0.0212941231659 -0.0247064940838 0.0 -0.0179293952256 -0.0272177474042 0.0 -0.0129959948378 -0.0299312686249 0.0 -0.00678091014374 -0.0319828441818 0.0 0.0 -0.0326557674026 0.0 -0.0256651383071 -0.0218111343682 0.0 -0.0247064940838 -0.0212941231659 0.0 -0.0226744262352 -0.0226744262352 0.0 -0.0191301263038 -0.0251427554047 0.0 -0.0138943561004 -0.027874224989 0.0 -0.00723842615821 -0.0299875023162 0.0 0.0 -0.0307453992759 0.0 -0.0281292355553 -0.0186139146164 0.0 -0.0272177474042 -0.0179293952256 0.0 -0.0251427554047 -0.0191301263038 0.0 -0.0214092015115 -0.0214092015115 0.0 -0.0156944338174 -0.0239842840605 0.0 -0.00822530145091 -0.0260103041895 0.0 0.0 -0.0267459710361 0.0 -0.0307189506885 -0.0136131428236 0.0 -0.0299312686249 -0.0129959948378 0.0 -0.027874224989 -0.0138943561004 0.0 -0.0239842840605 -0.0156944338174 0.0 -0.0177625934946 -0.0177625934946 0.0 -0.00937391638672 -0.0194189184751 0.0 0.0 -0.0200267270071 0.0 -0.0326223943464 -0.00714688313721 0.0 -0.0319828441818 -0.00678091014374 0.0 -0.0299875023162 -0.00723842615821 0.0 -0.0260103041895 -0.00822530145091 0.0 -0.0194189184751 -0.00937391638672 0.0 -0.0103075463945 -0.0103075463945 0.0 0.0 -0.0106593227469 0.0 -0.0330916139887 0.0 0.0 -0.0326557674026 0.0 0.0 -0.0307453992759 0.0 0.0 -0.0267459710361 0.0 0.0 -0.0200267270071 0.0 0.0 -0.0106593227469 0.0 0.0 0.0 0.0 0.0 -0.0225408519818 -0.0225408519818 0.00103308502313 -0.022475423254 -0.0226570104669 -0.000585550349403 -0.0212672798146 -0.0242342452399 -0.00213896639528 -0.0183773522919 -0.0267003301375 -0.00364180418522 -0.0136154343273 -0.0293145685239 -0.00495067128685 -0.00726749610932 -0.0312570131779 -0.00584288495074 0.0 -0.0316892166479 -0.00612499269299 -0.0226570104669 -0.022475423254 -0.000585550349403 -0.0222985363987 -0.0222985363987 -0.00219767970891 -0.0206919638575 -0.0237739066723 -0.00382416919069 -0.0175879671277 -0.0262948926406 -0.00545219380325 -0.0128833149085 -0.0290457598962 -0.00690283671469 -0.00681819984797 -0.0311442228539 -0.00788990064833 0.0 -0.0318784301434 -0.00813762973672 -0.0242342452399 -0.0212672798146 -0.00213896639528 -0.0237739066723 -0.0206919638575 -0.00382416919069 -0.0220737657177 -0.0220737657177 -0.00571431393121 -0.0188108859871 -0.0245869936696 -0.00775146359204 -0.0138192279114 -0.0273948891839 -0.00969002113798 -0.0073119470712 -0.0295832570236 -0.0110854751507 0.0 -0.0303996111903 -0.0114779818045 -0.0267003301375 -0.0183773522919 -0.00364180418522 -0.0262948926406 -0.0175879671277 -0.00545219380325 -0.0245869936696 -0.0188108859871 -0.00775146359204 -0.0211799066461 -0.0211799066461 -0.0104061353731 -0.0157405365592 -0.0238901558594 -0.0131271919051 -0.00840271290531 -0.026045482812 -0.0152375959922 0.0 -0.0268326399201 -0.0159645096345 -0.0293145685239 -0.0136154343273 -0.00495067128685 -0.0290457598962 -0.0128833149085 -0.00690283671469 -0.0273948891839 -0.0138192279115 -0.00969002113798 -0.0238901558594 -0.0157405365592 -0.0131271919051 -0.017988656079 -0.017988656079 -0.0168901823835 -0.00970425257895 -0.0198313549513 -0.0199705751049 0.0 -0.0205365315602 -0.0211590059401 -0.0312570131779 -0.00726749610932 -0.00584288495074 -0.0311442228539 -0.00681819984797 -0.00788990064833 -0.0295832570236 -0.0073119470712 -0.0110854751507 -0.026045482812 -0.00840271290531 -0.0152375959922 -0.0198313549513 -0.00970425257895 -0.0199705751049 -0.0107982675702 -0.0107982675702 -0.0240065856175 0.0 -0.0112871612144 -0.0256672926903 -0.0316892166479 0.0 -0.00612499269299 -0.0318784301434 0.0 -0.00813762973672 -0.0303996111903 0.0 -0.0114779818045 -0.0268326399201 0.0 -0.0159645096345 -0.0205365315602 0.0 -0.0211590059401 -0.0112871612144 0.0 -0.0256672926903 0.0 0.0 -0.0277862627262 -0.0204471429647 -0.0204471429647 0.00212828645721 -0.0205553922248 -0.0206357323875 -0.000874771320916 -0.0196890876438 -0.0222950803035 -0.00387215188725 -0.017218028924 -0.024885841319 -0.0067749245114 -0.0128846878119 -0.0276683423633 -0.00931463451512 -0.00692801175048 -0.0297759527578 -0.0110784843595 0.0 -0.0303094715014 -0.0118101251572 -0.0206357323875 -0.0205553922248 -0.000874771320916 -0.0204370746312 -0.0204370746312 -0.00381099683122 -0.0191814519817 -0.0220369610032 -0.00700140691632 -0.0164920474801 -0.0247477089861 -0.0102136787155 -0.0121930852311 -0.0277389775858 -0.0130938064301 -0.00649060058396 -0.030048060344 -0.0150800610827 0.0 -0.0308738059304 -0.0156560031995 -0.0222950803035 -0.0196890876438 -0.00387215188725 -0.0220369610032 -0.0191814519817 -0.00700140691632 -0.0207731059266 -0.0207731059266 -0.010779176378 -0.0179822527933 -0.0235902941562 -0.0148688400056 -0.0133698471891 -0.0267705686202 -0.0187946537298 -0.00711128738824 -0.029257198963 -0.0216393666137 0.0 -0.0301482446271 -0.0225006766757 -0.024885841319 -0.017218028924 -0.0067749245114 -0.0247477089861 -0.0164920474801 -0.0102136787155 -0.0235902941562 -0.0179822527933 -0.0148688400056 -0.0207740670162 -0.0207740670162 -0.020303672221 -0.0157074919336 -0.0240198899684 -0.0259674906265 -0.00844593469184 -0.0266066324494 -0.0303742412269 0.0 -0.0274539957884 -0.0318942958919 -0.0276683423633 -0.0128846878119 -0.00931463451512 -0.0277389775858 -0.0121930852311 -0.0130938064301 -0.0267705686202 -0.0133698471891 -0.0187946537298 -0.0240198899684 -0.0157074919336 -0.0259674906265 -0.0185031789489 -0.0185031789489 -0.0340509823971 -0.0100727813302 -0.0208368554381 -0.0406837963907 0.0 -0.0216558193034 -0.0431388776486 -0.0297759527578 -0.00692801175048 -0.0110784843595 -0.030048060344 -0.00649060058396 -0.0150800610827 -0.029257198963 -0.00711128738824 -0.0216393666137 -0.0266066324494 -0.00844593469184 -0.0303742412269 -0.0208368554381 -0.0100727813302 -0.0406837963907 -0.0114787040364 -0.0114787040364 -0.0495898592376 0.0 -0.0121058165992 -0.0531248484938 -0.0303094715014 0.0 -0.0118101251572 -0.0308738059304 0.0 -0.0156560031995 -0.0301482446271 0.0 -0.0225006766757 -0.0274539957884 0.0 -0.0318942958919 -0.0216558193034 0.0 -0.0431388776486 -0.0121058165992 0.0 -0.0531248484938 0.0 0.0 -0.0577997678125 -0.0171007064916 -0.0171007064916 0.00353609873641 -0.0173800078934 -0.0173586898374 -0.000669614459669 -0.0168679562957 -0.0190737849818 -0.00480737661745 -0.0149629614381 -0.0217213729891 -0.00881930817533 -0.0113389860538 -0.0246226006405 -0.0123428782617 -0.00615459149942 -0.0268751264455 -0.0148037157224 0.0 -0.0275099760935 -0.0158649937837 -0.0173586898374 -0.0173800078934 -0.000669614459669 -0.0173644573081 -0.0173644573081 -0.00489570063121 -0.0165021381359 -0.0190954010503 -0.00941674150347 -0.014397241131 -0.0219664772478 -0.0140213539001 -0.0107732520989 -0.0251941969473 -0.0181990560285 -0.00577344716362 -0.0277302400123 -0.0211138846729 0.0 -0.0286853897526 -0.0220384511624 -0.0190737849818 -0.0168679562957 -0.00480737661745 -0.0190954010503 -0.0165021381359 -0.00941674150347 -0.0183464906195 -0.0183464906195 -0.0148752380586 -0.0162566998598 -0.0215261626271 -0.020909141039 -0.0122990044877 -0.0251945764146 -0.0268140146048 -0.00658262919327 -0.0280727899395 -0.0311093205371 0.0 -0.0290354991419 -0.0324361814537 -0.0217213729891 -0.0149629614381 -0.00881930817533 -0.0219664772478 -0.014397241131 -0.0140213539001 -0.0215261626271 -0.0162566998598 -0.020909141039 -0.0196657265366 -0.0196657265366 -0.0292245679334 -0.0152833846075 -0.0237748337326 -0.0381984292138 -0.0082877859919 -0.0270495315888 -0.0451625471608 0.0 -0.0279358066898 -0.0474374646855 -0.0246226006405 -0.0113389860538 -0.0123428782617 -0.0251941969473 -0.0107732520989 -0.0181990560285 -0.0251945764146 -0.0122990044877 -0.0268140146048 -0.0237748337326 -0.0152833846075 -0.0381984292138 -0.019034741393 -0.019034741393 -0.0518373361504 -0.0104693759662 -0.0222654801516 -0.062974926024 0.0 -0.0232714993309 -0.0666479504048 -0.0268751264455 -0.00615459149942 -0.0148037157224 -0.0277302400123 -0.00577344716362 -0.0211138846729 -0.0280727899395 -0.00658262919327 -0.0311093205371 -0.0270495315888 -0.0082877859919 -0.0451625471608 -0.0222654801516 -0.0104693759662 -0.062974926024 -0.0124769289384 -0.0124769289384 -0.0786182669993 0.0 -0.0133699253024 -0.0842670008572 -0.0275099760935 0.0 -0.0158649937837 -0.0286853897526 0.0 -0.0220384511624 -0.0290354991419 0.0 -0.0324361814537 -0.0279358066898 0.0 -0.0474374646855 -0.0232714993309 0.0 -0.0666479504048 -0.0133699253024 0.0 -0.0842670008572 0.0 0.0 -0.0920100476508 -0.0123622674729 -0.0123622674729 0.00500449952608 -0.0127162424482 -0.0126303896583 -0.000104208635713 -0.0125231975343 -0.0141527274104 -0.00499317652695 -0.0112958080524 -0.0165105475205 -0.00969644501814 -0.00871487263481 -0.0191815429463 -0.0138405917232 -0.00481520238296 -0.0213037283156 -0.0167554921401 0.0 -0.0219292393838 -0.017996077579 -0.0126303896583 -0.0127162424482 -0.000104208635713 -0.0127924569174 -0.0127924569174 -0.00541896805649 -0.0123376298886 -0.0144017801308 -0.0109256321264 -0.0109615130983 -0.0170671417708 -0.01656791428 -0.00835059903129 -0.0201723537079 -0.02176617786 -0.00454257431752 -0.0226586014496 -0.0254678991782 0.0 -0.0236301030038 -0.0267793686033 -0.0141527274104 -0.0125231975343 -0.00499317652695 -0.0144017801308 -0.0123376298886 -0.0109256321264 -0.0141870277153 -0.0141870277153 -0.0176859418792 -0.0129836517771 -0.0173872746529 -0.0253143858761 -0.0100804609761 -0.0212650353596 -0.0329829135564 -0.00547141561613 -0.0243116311558 -0.0386146388104 0.0 -0.0252233064452 -0.0404811503472 -0.0165105475205 -0.0112958080524 -0.00969644501814 -0.0170671417708 -0.0109615130983 -0.01656791428 -0.0173872746529 -0.0129836517771 -0.0253143858761 -0.016824002432 -0.016824002432 -0.0363784864471 -0.0136489320561 -0.0218402718764 -0.0489847406841 -0.00749346417101 -0.0257938846108 -0.0586694908975 0.0 -0.0265302267909 -0.0616702538366 -0.0191815429463 -0.00871487263481 -0.0138405917232 -0.0201723537079 -0.00835059903129 -0.02176617786 -0.0212650353596 -0.0100804609761 -0.0329829135564 -0.0218402718764 -0.0136489320561 -0.0489847406841 -0.0186460909022 -0.0186460909022 -0.0702991229666 -0.0103876827729 -0.0231576027119 -0.0873849210692 0.0 -0.0242950827618 -0.0919450426739 -0.0213037283156 -0.00481520238296 -0.0167554921401 -0.0226586014496 -0.00454257431752 -0.0254678991782 -0.0243116311558 -0.00547141561613 -0.0386146388104 -0.0257938846108 -0.00749346417101 -0.0586694908975 -0.0231576027119 -0.0103876827729 -0.0873849210692 -0.0134018931595 -0.0134018931595 -0.113159118221 0.0 -0.0146628195309 -0.121151748906 -0.0219292393838 0.0 -0.017996077579 -0.0236301030038 0.0 -0.0267793686033 -0.0252233064452 0.0 -0.0404811503472 -0.0265302267909 0.0 -0.0616702538366 -0.0242950827618 0.0 -0.0919450426739 -0.0146628195309 0.0 -0.121151748906 0.0 0.0 -0.132775202821 -0.00642487118141 -0.00642487118141 0.00599384803992 -0.00669026176179 -0.0066091796422 0.00040349879479 -0.00668510761253 -0.00754530285392 -0.00486337825528 -0.0061317190955 -0.0090273587254 -0.0098654505415 -0.00482889861188 -0.0107797582176 -0.0142513125024 -0.00280163281561 -0.0121905568889 -0.0174533322298 0.0 -0.0125273223598 -0.0188734482085 -0.0066091796422 -0.00669026176179 0.00040349879479 -0.00679822870654 -0.00679822870654 -0.00559868138098 -0.00665363659611 -0.00782883083599 -0.0116826107994 -0.00602346733859 -0.00957685532539 -0.0179197739782 -0.00468803734387 -0.011730581126 -0.0237233114852 -0.00266153379882 -0.0134705032172 -0.0280400310726 0.0 -0.0141173713328 -0.0298733563886 -0.00754530285392 -0.00668510761253 -0.00486337825528 -0.00782883083599 -0.00665363659611 -0.0116826107994 -0.00788984111063 -0.00788984111063 -0.0191824849682 -0.00747861331941 -0.010145442648 -0.0277740924282 -0.00600088777509 -0.0131619571636 -0.0366184713921 -0.00340497730906 -0.0155303031244 -0.0433315983554 0.0 -0.0160901652456 -0.0460003796861 -0.0090273587254 -0.0061317190955 -0.0098654505415 -0.00957685532539 -0.00602346733859 -0.0179197739782 -0.010145442648 -0.00747861331941 -0.0277740924282 -0.0106303737253 -0.0106303737253 -0.0409491273181 -0.00909297611224 -0.0154181975719 -0.0569302804361 -0.0051423707314 -0.0190499654877 -0.0690875611106 0.0 -0.0192565190229 -0.0730113990671 -0.0107797582176 -0.00482889861188 -0.0142513125024 -0.011730581126 -0.00468803734387 -0.0237233114852 -0.0131619571636 -0.00600088777509 -0.0366184713921 -0.0154181975719 -0.00909297611224 -0.0569302804361 -0.0144968419655 -0.0144968419655 -0.0889623474161 -0.00834245560773 -0.019881915565 -0.113773229036 0.0 -0.0207239360585 -0.118297787656 -0.0121905568889 -0.00280163281561 -0.0174533322298 -0.0134705032172 -0.00266153379882 -0.0280400310726 -0.0155303031244 -0.00340497730906 -0.0433315983554 -0.0190499654877 -0.0051423707314 -0.0690875611106 -0.019881915565 -0.00834245560773 -0.113773229036 -0.012538887356 -0.012538887356 -0.155035656573 0.0 -0.0138711235241 -0.165509194068 -0.0125273223598 0.0 -0.0188734482085 -0.0141173713328 0.0 -0.0298733563886 -0.0160901652456 0.0 -0.0460003796861 -0.0192565190229 0.0 -0.0730113990671 -0.0207239360585 0.0 -0.118297787656 -0.0138711235241 0.0 -0.165509194068 0.0 0.0 -0.182139024327 0.0 0.0 0.00601708998625 0.0 0.0 0.000390254632716 0.0 0.0 -0.00502904002044 0.0 0.0 -0.0101892429475 0.0 0.0 -0.0147313122411 0.0 0.0 -0.0180850199812 0.0 0.0 -0.0202816147367 0.0 0.0 0.000390254632716 0.0 0.0 -0.00573001384732 0.0 0.0 -0.0120466715061 0.0 0.0 -0.0185531013222 0.0 0.0 -0.0246781297607 0.0 0.0 -0.0293234215135 0.0 0.0 -0.0319862263516 0.0 0.0 -0.00502904002044 0.0 0.0 -0.0120466715061 0.0 0.0 -0.0198986292476 0.0 0.0 -0.0289543033425 0.0 0.0 -0.0384917215536 0.0 0.0 -0.0458601348549 0.0 0.0 -0.0496961992397 0.0 0.0 -0.0101892429475 0.0 0.0 -0.0185531013222 0.0 0.0 -0.0289543033425 0.0 0.0 -0.0431061740607 0.0 0.0 -0.0614422163272 0.0 0.0 -0.0755198619863 0.0 0.0 -0.0811355572673 0.0 0.0 -0.0147313122411 0.0 0.0 -0.0246781297607 0.0 0.0 -0.0384917215536 0.0 0.0 -0.0614422163272 0.0 0.0 -0.107887764878 0.0 0.0 -0.14154264045 0.0 0.0 -0.144897198905 0.0 0.0 -0.0180850199812 0.0 0.0 -0.0293234215135 0.0 0.0 -0.0458601348549 0.0 0.0 -0.0755198619863 0.0 0.0 -0.14154264045 0.0 0.0 -0.201788319824 0.0 0.0 -0.217016376915 0.0 0.0 -0.0202816147367 0.0 0.0 -0.0319862263516 0.0 0.0 -0.0496961992397 0.0 0.0 -0.0811355572673 0.0 0.0 -0.144897198905 0.0 0.0 -0.217016376915 0.0 0.0 -0.240145919942</DataArray>