<?xml version="1.0"?>
<VTKFile type="UnstructuredGrid"  version="0.1"  >
<UnstructuredGrid>
<Piece  NumberOfPoints="729" NumberOfCells="3072">
<Points>
<DataArray  type="Float64"  NumberOfComponents="3"  format="ascii">0 0 0  0.125 0 0  0.25 0 0  0.375 0 0  0.5 0 0  0.625 0 0  0.75 0 0  0.875 0 0  1 0 0  0 0.125 0  0.125 0.125 0  0.25 0.125 0  0.375 0.125 0  0.5 0.125 0  0.625 0.125 0  0.75 0.125 0  0.875 0.125 0  1 0.125 0  0 0.25 0  0.125 0.25 0  0.25 0.25 0  0.375 0.25 0  0.5 0.25 0  0.625 0.25 0  0.75 0.25 0  0.875 0.25 0  1 0.25 0  0 0.375 0  0.125 0.375 0  0.25 0.375 0  0.375 0.375 0  0.5 0.375 0  0.625 0.375 0  0.75 0.375 0  0.875 0.375 0  1 0.375 0  0 0.5 0  0.125 0.5 0  0.25 0.5 0  0.375 0.5 0  0.5 0.5 0  0.625 0.5 0  0.75 0.5 0  0.875 0.5 0  1 0.5 0  0 0.625 0  0.125 0.625 0  0.25 0.625 0  0.375 0.625 0  0.5 0.625 0  0.625 0.625 0  0.75 0.625 0  0.875 0.625 0  1 0.625 0  0 0.75 0  0.125 0.75 0  0.25 0.75 0  0.375 0.75 0  0.5 0.75 0  0.625 0.75 0  0.75 0.75 0  0.875 0.75 0  1 0.75 0  0 0.875 0  0.125 0.875 0  0.25 0.875 0  0.375 0.875 0  0.5 0.875 0  0.625 0.875 0  0.75 0.875 0  0.875 0.875 0  1 0.875 0  0 1 0  0.125 1 0  0.25 1 0  0.375 1 0  0.5 1 0  0.625 1 0  0.75 1 0  0.875 1 0  1 1 0  0 0 0.125  0.125 0 0.125  0.25 0 0.125  0.375 0 0.125  0.5 0 0.125  0.625 0 0.125  0.75 0 0.125  0.875 0 0.125  1 0 0.125  0 0.125 0.125  0.125 0.125 0.125  0.25 0.125 0.125  0.375 0.125 0.125  0.5 0.125 0.125  0.625 0.125 0.125  0.75 0.125 0.125  0.875 0.125 0.125  1 0.125 0.125  0 0.25 0.125  0.125 0.25 0.125  0.25 0.25 0.125  0.375 0.25 0.125  0.5 0.25 0.125  0.625 0.25 0.125  0.75 0.25 0.125  0.875 0.25 0.125  1 0.25 0.125  0 0.375 0.125  0.125 0.375 0.125  0.25 0.375 0.125  0.375 0.375 0.125  0.5 0.375 0.125  0.625 0.375 0.125  0.75 0.375 0.125  0.875 0.375 0.125  1 0.375 0.125  0 0.5 0.125  0.125 0.5 0.125  0.25 0.5 0.125  0.375 0.5 0.125  0.5 0.5 0.125  0.625 0.5 0.125  0.75 0.5 0.125  0.875 0.5 0.125  1 0.5 0.125  0 0.625 0.125  0.125 0.625 0.125  0.25 0.625 0.125  0.375 0.625 0.125  0.5 0.625 0.125  0.625 0.625 0.125  0.75 0.625 0.125  0.875 0.625 0.125  1 0.625 0.125  0 0.75 0.125  0.125 0.75 0.125  0.25 0.75 0.125  0.375 0.75 0.125  0.5 0.75 0.125  0.625 0.75 0.125  0.75 0.75 0.125  0.875 0.75 0.125  1 0.75 0.125  0 0.875 0.125  0.125 0.875 0.125  0.25 0.875 0.125  0.375 0.875 0.125  0.5 0.875 0.125  0.625 0.875 0.125  0.75 0.875 0.125  0.875 0.875 0.125  1 0.875 0.125  0 1 0.125  0.125 1 0.125  0.25 1 0.125  0.375 1 0.125  0.5 1 0.125  0.625 1 0.125  0.75 1 0.125  0.875 1 0.125  1 1 0.125  0 0 0.25  0.125 0 0.25  0.25 0 0.25  0.375 0 0.25  0.5 0 0.25  0.625 0 0.25  0.75 0 0.25  0.875 0 0.25  1 0 0.25  0 0.125 0.25  0.125 0.125 0.25  0.25 0.125 0.25  0.375 0.125 0.25  0.5 0.125 0.25  0.625 0.125 0.25  0.75 0.125 0.25  0.875 0.125 0.25  1 0.125 0.25  0 0.25 0.25  0.125 0.25 0.25  0.25 0.25 0.25  0.375 0.25 0.25  0.5 0.25 0.25  0.625 0.25 0.25  0.75 0.25 0.25  0.875 0.25 0.25  1 0.25 0.25  0 0.375 0.25  0.125 0.375 0.25  0.25 0.375 0.25  0.375 0.375 0.25  0.5 0.375 0.25  0.625 0.375 0.25  0.75 0.375 0.25  0.875 0.375 0.25  1 0.375 0.25  0 0.5 0.25  0.125 0.5 0.25  0.25 0.5 0.25  0.375 0.5 0.25  0.5 0.5 0.25  0.625 0.5 0.25  0.75 0.5 0.25  0.875 0.5 0.25  1 0.5 0.25  0 0.625 0.25  0.125 0.625 0.25  0.25 0.625 0.25  0.375 0.625 0.25  0.5 0.625 0.25  0.625 0.625 0.25  0.75 0.625 0.25  0.875 0.625 0.25  1 0.625 0.25  0 0.75 0.25  0.125 0.75 0.25  0.25 0.75 0.25  0.375 0.75 0.25  0.5 0.75 0.25  0.625 0.75 0.25  0.75 0.75 0.25  0.875 0.75 0.25  1 0.75 0.25  0 0.875 0.25  0.125 0.875 0.25  0.25 0.875 0.25  0.375 0.875 0.25  0.5 0.875 0.25  0.625 0.875 0.25  0.75 0.875 0.25  0.875 0.875 0.25  1 0.875 0.25  0 1 0.25  0.125 1 0.25  0.25 1 0.25  0.375 1 0.25  0.5 1 0.25  0.625 1 0.25  0.75 1 0.25  0.875 1 0.25  1 1 0.25  0 0 0.375  0.125 0 0.375  0.25 0 0.375  0.375 0 0.375  0.5 0 0.375  0.625 0 0.375  0.75 0 0.375  0.875 0 0.375  1 0 0.375  0 0.125 0.375  0.125 0.125 0.375  0.25 0.125 0.375  0.375 0.125 0.375  0.5 0.125 0.375  0.625 0.125 0.375  0.75 0.125 0.375  0.875 0.125 0.375  1 0.125 0.375  0 0.25 0.375  0.125 0.25 0.375  0.25 0.25 0.375  0.375 0.25 0.375  0.5 0.25 0.375  0.625 0.25 0.375  0.75 0.25 0.375  0.875 0.25 0.375  1 0.25 0.375  0 0.375 0.375  0.125 0.375 0.375  0.25 0.375 0.375  0.375 0.375 0.375  0.5 0.375 0.375  0.625 0.375 0.375  0.75 0.375 0.375  0.875 0.375 0.375  1 0.375 0.375  0 0.5 0.375  0.125 0.5 0.375  0.25 0.5 0.375  0.375 0.5 0.375  0.5 0.5 0.375  0.625 0.5 0.375  0.75 0.5 0.375  0.875 0.5 0.375  1 0.5 0.375  0 0.625 0.375  0.125 0.625 0.375  0.25 0.625 0.375  0.375 0.625 0.375  0.5 0.625 0.375  0.625 0.625 0.375  0.75 0.625 0.375  0.875 0.625 0.375  1 0.625 0.375  0 0.75 0.375  0.125 0.75 0.375  0.25 0.75 0.375  0.375 0.75 0.375  0.5 0.75 0.375  0.625 0.75 0.375  0.75 0.75 0.375  0.875 0.75 0.375  1 0.75 0.375  0 0.875 0.375  0.125 0.875 0.375  0.25 0.875 0.375  0.375 0.875 0.375  0.5 0.875 0.375  0.625 0.875 0.375  0.75 0.875 0.375  0.875 0.875 0.375  1 0.875 0.375  0 1 0.375  0.125 1 0.375  0.25 1 0.375  0.375 1 0.375  0.5 1 0.375  0.625 1 0.375  0.75 1 0.375  0.875 1 0.375  1 1 0.375  0 0 0.5  0.125 0 0.5  0.25 0 0.5  0.375 0 0.5  0.5 0 0.5  0.625 0 0.5  0.75 0 0.5  0.875 0 0.5  1 0 0.5  0 0.125 0.5  0.125 0.125 0.5  0.25 0.125 0.5  0.375 0.125 0.5  0.5 0.125 0.5  0.625 0.125 0.5  0.75 0.125 0.5  0.875 0.125 0.5  1 0.125 0.5  0 0.25 0.5  0.125 0.25 0.5  0.25 0.25 0.5  0.375 0.25 0.5  0.5 0.25 0.5  0.625 0.25 0.5  0.75 0.25 0.5  0.875 0.25 0.5  1 0.25 0.5  0 0.375 0.5  0.125 0.375 0.5  0.25 0.375 0.5  0.375 0.375 0.5  0.5 0.375 0.5  0.625 0.375 0.5  0.75 0.375 0.5  0.875 0.375 0.5  1 0.375 0.5  0 0.5 0.5  0.125 0.5 0.5  0.25 0.5 0.5  0.375 0.5 0.5  0.5 0.5 0.5  0.625 0.5 0.5  0.75 0.5 0.5  0.875 0.5 0.5  1 0.5 0.5  0 0.625 0.5  0.125 0.625 0.5  0.25 0.625 0.5  0.375 0.625 0.5  0.5 0.625 0.5  0.625 0.625 0.5  0.75 0.625 0.5  0.875 0.625 0.5  1 0.625 0.5  0 0.75 0.5  0.125 0.75 0.5  0.25 0.75 0.5  0.375 0.75 0.5  0.5 0.75 0.5  0.625 0.75 0.5  0.75 0.75 0.5  0.875 0.75 0.5  1 0.75 0.5  0 0.875 0.5  0.125 0.875 0.5  0.25 0.875 0.5  0.375 0.875 0.5  0.5 0.875 0.5  0.625 0.875 0.5  0.75 0.875 0.5  0.875 0.875 0.5  1 0.875 0.5  0 1 0.5  0.125 1 0.5  0.25 1 0.5  0.375 1 0.5  0.5 1 0.5  0.625 1 0.5  0.75 1 0.5  0.875 1 0.5  1 1 0.5  0 0 0.625  0.125 0 0.625  0.25 0 0.625  0.375 0 0.625  0.5 0 0.625  0.625 0 0.625  0.75 0 0.625  0.875 0 0.625  1 0 0.625  0 0.125 0.625  0.125 0.125 0.625  0.25 0.125 0.625  0.375 0.125 0.625  0.5 0.125 0.625  0.625 0.125 0.625  0.75 0.125 0.625  0.875 0.125 0.625  1 0.125 0.625  0 0.25 0.625  0.125 0.25 0.625  0.25 0.25 0.625  0.375 0.25 0.625  0.5 0.25 0.625  0.625 0.25 0.625  0.75 0.25 0.625  0.875 0.25 0.625  1 0.25 0.625  0 0.375 0.625  0.125 0.375 0.625  0.25 0.375 0.625  0.375 0.375 0.625  0.5 0.375 0.625  0.625 0.375 0.625  0.75 0.375 0.625  0.875 0.375 0.625  1 0.375 0.625  0 0.5 0.625  0.125 0.5 0.625  0.25 0.5 0.625  0.375 0.5 0.625  0.5 0.5 0.625  0.625 0.5 0.625  0.75 0.5 0.625  0.875 0.5 0.625  1 0.5 0.625  0 0.625 0.625  0.125 0.625 0.625  0.25 0.625 0.625  0.375 0.625 0.625  0.5 0.625 0.625  0.625 0.625 0.625  0.75 0.625 0.625  0.875 0.625 0.625  1 0.625 0.625  0 0.75 0.625  0.125 0.75 0.625  0.25 0.75 0.625  0.375 0.75 0.625  0.5 0.75 0.625  0.625 0.75 0.625  0.75 0.75 0.625  0.875 0.75 0.625  1 0.75 0.625  0 0.875 0.625  0.125 0.875 0.625  0.25 0.875 0.625  0.375 0.875 0.625  0.5 0.875 0.625  0.625 0.875 0.625  0.75 0.875 0.625  0.875 0.875 0.625  1 0.875 0.625  0 1 0.625  0.125 1 0.625  0.25 1 0.625  0.375 1 0.625  0.5 1 0.625  0.625 1 0.625  0.75 1 0.625  0.875 1 0.625  1 1 0.625  0 0 0.75  0.125 0 0.75  0.25 0 0.75  0.375 0 0.75  0.5 0 0.75  0.625 0 0.75  0.75 0 0.75  0.875 0 0.75  1 0 0.75  0 0.125 0.75  0.125 0.125 0.75  0.25 0.125 0.75  0.375 0.125 0.75  0.5 0.125 0.75  0.625 0.125 0.75  0.75 0.125 0.75  0.875 0.125 0.75  1 0.125 0.75  0 0.25 0.75  0.125 0.25 0.75  0.25 0.25 0.75  0.375 0.25 0.75  0.5 0.25 0.75  0.625 0.25 0.75  0.75 0.25 0.75  0.875 0.25 0.75  1 0.25 0.75  0 0.375 0.75  0.125 0.375 0.75  0.25 0.375 0.75  0.375 0.375 0.75  0.5 0.375 0.75  0.625 0.375 0.75  0.75 0.375 0.75  0.875 0.375 0.75  1 0.375 0.75  0 0.5 0.75  0.125 0.5 0.75  0.25 0.5 0.75  0.375 0.5 0.75  0.5 0.5 0.75  0.625 0.5 0.75  0.75 0.5 0.75  0.875 0.5 0.75  1 0.5 0.75  0 0.625 0.75  0.125 0.625 0.75  0.25 0.625 0.75  0.375 0.625 0.75  0.5 0.625 0.75  0.625 0.625 0.75  0.75 0.625 0.75  0.875 0.625 0.75  1 0.625 0.75  0 0.75 0.75  0.125 0.75 0.75  0.25 0.75 0.75  0.375 0.75 0.75  0.5 0.75 0.75  0.625 0.75 0.75  0.75 0.75 0.75  0.875 0.75 0.75  1 0.75 0.75  0 0.875 0.75  0.125 0.875 0.75  0.25 0.875 0.75  0.375 0.875 0.75  0.5 0.875 0.75  0.625 0.875 0.75  0.75 0.875 0.75  0.875 0.875 0.75  1 0.875 0.75  0 1 0.75  0.125 1 0.75  0.25 1 0.75  0.375 1 0.75  0.5 1 0.75  0.625 1 0.75  0.75 1 0.75  0.875 1 0.75  1 1 0.75  0 0 0.875  0.125 0 0.875  0.25 0 0.875  0.375 0 0.875  0.5 0 0.875  0.625 0 0.875  0.75 0 0.875  0.875 0 0.875  1 0 0.875  0 0.125 0.875  0.125 0.125 0.875  0.25 0.125 0.875  0.375 0.125 0.875  0.5 0.125 0.875  0.625 0.125 0.875  0.75 0.125 0.875  0.875 0.125 0.875  1 0.125 0.875  0 0.25 0.875  0.125 0.25 0.875  0.25 0.25 0.875  0.375 0.25 0.875  0.5 0.25 0.875  0.625 0.25 0.875  0.75 0.25 0.875  0.875 0.25 0.875  1 0.25 0.875  0 0.375 0.875  0.125 0.375 0.875  0.25 0.375 0.875  0.375 0.375 0.875  0.5 0.375 0.875  0.625 0.375 0.875  0.75 0.375 0.875  0.875 0.375 0.875  1 0.375 0.875  0 0.5 0.875  0.125 0.5 0.875  0.25 0.5 0.875  0.375 0.5 0.875  0.5 0.5 0.875  0.625 0.5 0.875  0.75 0.5 0.875  0.875 0.5 0.875  1 0.5 0.875  0 0.625 0.875  0.125 0.625 0.875  0.25 0.625 0.875  0.375 0.625 0.875  0.5 0.625 0.875  0.625 0.625 0.875  0.75 0.625 0.875  0.875 0.625 0.875  1 0.625 0.875  0 0.75 0.875  0.125 0.75 0.875  0.25 0.75 0.875  0.375 0.75 0.875  0.5 0.75 0.875  0.625 0.75 0.875  0.75 0.75 0.875  0.875 0.75 0.875  1 0.75 0.875  0 0.875 0.875  0.125 0.875 0.875  0.25 0.875 0.875  0.375 0.875 0.875  0.5 0.875 0.875  0.625 0.875 0.875  0.75 0.875 0.875  0.
[...]
<PointData  Vectors="f_25"> 
<DataArray  type="Float64"  Name="f_25"  NumberOfComponents="3" format="ascii">-2.8175726846699171e-02 -2.8175726846699171e-02 0.0000000000000000e+00  -2.8077635766241685e-02 -2.8277886524263749e-02 0.0000000000000000e+00  -2.7391646204902302e-02 -2.9316019880701101e-02 0.0000000000000000e+00  -2.5718233571356015e-02 -3.1200758088105802e-02 0.0000000000000000e+00  -2.2794460896697854e-02 -3.3600953386411024e-02 0.0000000000000000e+00  -1.8537321050420070e-02 -3.6095182939422536e-02 0.0000000000000000e+00  -1.3071424420149269e-02 -3.8240332780463362e-02 0.0000000000000000e+00  -6.7321302667224274e-03 -3.9629479891348331e-02 0.0000000000000000e+00  0.0000000000000000e+00 -3.9909807202738283e-02 0.0000000000000000e+00  -2.8277886524263739e-02 -2.8077635766241692e-02 0.0000000000000000e+00  -2.7839791662774727e-02 -2.7839791662774734e-02 0.0000000000000000e+00  -2.6789805860366771e-02 -2.8764624226759412e-02 0.0000000000000000e+00  -2.4827569241335654e-02 -3.0649952690006026e-02 0.0000000000000000e+00  -2.1774680486977872e-02 -3.3119504260405185e-02 0.0000000000000000e+00  -1.7577872601113098e-02 -3.5718429237015112e-02 0.0000000000000000e+00  -1.2341984140043463e-02 -3.7976105221807895e-02 0.0000000000000000e+00  -6.3433810294604041e-03 -3.9470488557768260e-02 0.0000000000000000e+00  0.0000000000000000e+00 -3.9901050774171061e-02 0.0000000000000000e+00  -2.9316019880701077e-02 -2.7391646204902306e-02 0.0000000000000000e+00  -2.8764624226759402e-02 -2.6789805860366781e-02 0.0000000000000000e+00  -2.7592656886418980e-02 -2.7592656886418973e-02 0.0000000000000000e+00  -2.5498047064641028e-02 -2.9442359675106274e-02 0.0000000000000000e+00  -2.2312848722554141e-02 -3.1920927875934285e-02 0.0000000000000000e+00  -1.7982098100719674e-02 -3.4561857098251776e-02 0.0000000000000000e+00  -1.2602845827933900e-02 -3.6883517677414747e-02 0.0000000000000000e+00  -6.4572674353459295e-03 -3.8450368289014235e-02 0.0000000000000000e+00  0.0000000000000000e+00 -3.8961593270547205e-02 0.0000000000000000e+00  -3.1200758088105792e-02 -2.5718233571356015e-02 0.0000000000000000e+00  -3.0649952690006012e-02 -2.4827569241335650e-02 0.0000000000000000e+00  -2.9442359675106264e-02 -2.5498047064641035e-02 0.0000000000000000e+00  -2.7270871323874762e-02 -2.7270871323874762e-02 0.0000000000000000e+00  -2.3936652065693440e-02 -2.9697402778424298e-02 0.0000000000000000e+00  -1.9349112066879594e-02 -3.2313648601156764e-02 0.0000000000000000e+00  -1.3588792499848833e-02 -3.4639870353349804e-02 0.0000000000000000e+00  -6.9654338203568771e-03 -3.6230373516979442e-02 0.0000000000000000e+00  0.0000000000000000e+00 -3.6770433563488025e-02 0.0000000000000000e+00  -3.3600953386411003e-02 -2.2794460896697864e-02 0.0000000000000000e+00  -3.3119504260405164e-02 -2.1774680486977886e-02 0.0000000000000000e+00  -3.1920927875934278e-02 -2.2312848722554145e-02 0.0000000000000000e+00  -2.9697402778424281e-02 -2.3936652065693443e-02 0.0000000000000000e+00  -2.6206892559194062e-02 -2.6206892559194075e-02 0.0000000000000000e+00  -2.1299435521087897e-02 -2.8683432485193946e-02 0.0000000000000000e+00  -1.5024113994230884e-02 -3.0908254627102425e-02 0.0000000000000000e+00  -7.7243022798794223e-03 -3.2444094726633864e-02 0.0000000000000000e+00  0.0000000000000000e+00 -3.2973752547623976e-02 0.0000000000000000e+00  -3.6095182939422522e-02 -1.8537321050420087e-02 0.0000000000000000e+00  -3.5718429237015098e-02 -1.7577872601113112e-02 0.0000000000000000e+00  -3.4561857098251776e-02 -1.7982098100719681e-02 0.0000000000000000e+00  -3.2313648601156757e-02 -1.9349112066879608e-02 0.0000000000000000e+00  -2.8683432485193939e-02 -2.1299435521087894e-02 0.0000000000000000e+00  -2.3450097925934950e-02 -2.3450097925934960e-02 0.0000000000000000e+00  -1.6620122454710853e-02 -2.5399180315374355e-02 0.0000000000000000e+00  -8.5740128409326384e-03 -2.6756863368567488e-02 0.0000000000000000e+00  0.0000000000000000e+00 -2.7232593711336118e-02 0.0000000000000000e+00  -3.8240332780463362e-02 -1.3071424420149287e-02 0.0000000000000000e+00  -3.7976105221807901e-02 -1.2341984140043468e-02 0.0000000000000000e+00  -3.6883517677414740e-02 -1.2602845827933914e-02 0.0000000000000000e+00  -3.4639870353349797e-02 -1.3588792499848840e-02 0.0000000000000000e+00  -3.0908254627102425e-02 -1.5024113994230889e-02 0.0000000000000000e+00  -2.5399180315374352e-02 -1.6620122454710857e-02 0.0000000000000000e+00  -1.8074413268920491e-02 -1.8074413268920491e-02 0.0000000000000000e+00  -9.3473079128419852e-03 -1.9096042628643371e-02 0.0000000000000000e+00  0.0000000000000000e+00 -1.9463985842473469e-02 0.0000000000000000e+00  -3.9629479891348324e-02 -6.7321302667224265e-03 0.0000000000000000e+00  -3.9470488557768246e-02 -6.3433810294603980e-03 0.0000000000000000e+00  -3.8450368289014228e-02 -6.4572674353459321e-03 0.0000000000000000e+00  -3.6230373516979435e-02 -6.9654338203568806e-03 0.0000000000000000e+00  -3.2444094726633857e-02 -7.7243022798794371e-03 0.0000000000000000e+00  -2.6756863368567477e-02 -8.5740128409326315e-03 0.0000000000000000e+00  -1.9096042628643371e-02 -9.3473079128419852e-03 0.0000000000000000e+00  -9.8998920979210901e-03 -9.8998920979210987e-03 0.0000000000000000e+00  0.0000000000000000e+00 -1.0105513212823516e-02 0.0000000000000000e+00  -3.9909807202738269e-02 0.0000000000000000e+00 0.0000000000000000e+00  -3.9901050774171054e-02 0.0000000000000000e+00 0.0000000000000000e+00  -3.8961593270547205e-02 0.0000000000000000e+00 0.0000000000000000e+00  -3.6770433563488018e-02 0.0000000000000000e+00 0.0000000000000000e+00  -3.2973752547623955e-02 0.0000000000000000e+00 0.0000000000000000e+00  -2.7232593711336111e-02 0.0000000000000000e+00 0.0000000000000000e+00  -1.9463985842473466e-02 0.0000000000000000e+00 0.0000000000000000e+00  -1.0105513212823512e-02 0.0000000000000000e+00 0.0000000000000000e+00  0.0000000000000000e+00 0.0000000000000000e+00 0.0000000000000000e+00  -2.7290306027760721e-02 -2.7290306027760721e-02 1.1576472062352443e-03  -2.7423971275412806e-02 -2.7309108433112319e-02 6.4261447354541933e-05  -2.6929634932495478e-02 -2.8334376915970939e-02 -9.7660116716372937e-04  -2.5429181150843878e-02 -3.0215934924319843e-02 -2.0198033073656660e-03  -2.2659642807336854e-02 -3.2618593630701423e-02 -3.0302615685863527e-03  -1.8529671600976072e-02 -3.5124479034866936e-02 -3.9425270675426949e-03  -1.3150070650483250e-02 -3.7292595557899634e-02 -4.6725470296459922e-03  -6.8357619396943251e-03 -3.8712409798702024e-02 -5.1399035879855564e-03  0.0000000000000000e+00 -3.8982559538213772e-02 -5.2860579202076924e-03  -2.7309108433112312e-02 -2.7423971275412809e-02 6.4261447354535198e-05  -2.7195290762088369e-02 -2.7195290762088372e-02 -1.0194690991426408e-03  -2.6311347267023756e-02 -2.8101028633247142e-02 -2.0746548364184215e-03  -2.4480207602761202e-02 -2.9981486984994133e-02 -3.1526280936584449e-03  -2.1549506257703670e-02 -3.2458801688246157e-02 -4.2093969207607270e-03  -1.7467151938332526e-02 -3.5075881706667367e-02 -5.1697869921857173e-03  -1.2326866254591423e-02 -3.7358999800629393e-02 -5.9376656942533379e-03  -6.3821521475375988e-03 -3.8883888582086024e-02 -6.4168821251075663e-03  0.0000000000000000e+00 -3.9372019320551781e-02 -6.5312949684739590e-03  -2.8334376915970929e-02 -2.6929634932495481e-02 -9.7660116716372742e-04  -2.8101028633247128e-02 -2.6311347267023760e-02 -2.0746548364184263e-03  -2.7104741242791379e-02 -2.7104741242791393e-02 -3.2099987713781644e-03  -2.5144788552918018e-02 -2.8959608878519897e-02 -4.4294390664580468e-03  -2.2084332030823894e-02 -3.1458518538136200e-02 -5.6664140831231818e-03  -1.7872584042610062e-02 -3.4131404962972949e-02 -6.8232936740242099e-03  -1.2594354648834693e-02 -3.6490055624526105e-02 -7.7690830120930371e-03  -6.5042911612841229e-03 -3.8094373800292437e-02 -8.3653529457548524e-03  0.0000000000000000e+00 -3.8667454721444922e-02 -8.5055702251697861e-03  -3.0215934924319843e-02 -2.5429181150843895e-02 -2.0198033073656630e-03  -2.9981486984994123e-02 -2.4480207602761202e-02 -3.1526280936584401e-03  -2.8959608878519887e-02 -2.5144788552918015e-02 -4.4294390664580486e-03  -2.6938661170940001e-02 -2.6938661170940004e-02 -5.8709142941184194e-03  -2.3744786791240681e-02 -2.9405650632986450e-02 -7.3901965322557403e-03  -1.9288390027753802e-02 -3.2076354577142085e-02 -8.8628145573203792e-03  -1.3632201916592630e-02 -3.4460528007061425e-02 -1.0105866463590371e-02  -7.0499828547243831e-03 -3.6100724306029175e-02 -1.0913431072412631e-02  0.0000000000000000e+00 -3.6692096430614343e-02 -1.1135915197328117e-02  -3.2618593630701416e-02 -2.2659642807336861e-02 -3.0302615685863571e-03  -3.2458801688246143e-02 -2.1549506257703688e-02 -4.2093969207607287e-03  -3.1458518538136179e-02 -2.2084332030823894e-02 -5.6664140831231809e-03  -2.9405650632986436e-02 -2.3744786791240695e-02 -7.3901965322557394e-03  -2.6078084900616413e-02 -2.6078084900616423e-02 -9.2728337573225045e-03  -2.1319921980464816e-02 -2.8636541510259655e-02 -1.1164124074344698e-02  -1.5152151614280398e-02 -3.0947673832004401e-02 -1.2815188275434732e-02  -7.8690381138878836e-03 -3.2553065620411686e-02 -1.3924747417994487e-02  0.0000000000000000e+00 -3.3126761518082505e-02 -1.4286382473053484e-02  -3.5124479034866936e-02 -1.8529671600976082e-02 -3.9425270675427027e-03  -3.5075881706667346e-02 -1.7467151938332526e-02 -5.1697869921857199e-03  -3.4131404962972949e-02 -1.7872584042610069e-02 -6.8232936740242073e-03  -3.2076354577142085e-02 -1.9288390027753809e-02 -8.8628145573203757e-03  -2.8636541510259655e-02 -2.1319921980464812e-02 -1.1164124074344693e-02  -2.3576163328368187e-02 -2.3576163328368198e-02 -1.3551283241147126e-02  -1.6858535685977942e-02 -2.5638476165934725e-02 -1.5693776599194773e-02  -8.7973917133905895e-03 -2.7089171966389287e-02 -1.7167886838099996e-02  0.0000000000000000e+00 -2.7618802467422841e-02 -1.7704604692454391e-02  -3.7292595557899627e-02 -1.3150070650483259e-02 -4.6725470296460000e-03  -3.7358999800629379e-02 -1.2326866254591425e-02 -5.9376656942533405e-03  -3.6490055624526098e-02 -1.2594354648834696e-02 -7.7690830120930405e-03  -3.4460528007061418e-02 -1.3632201916592639e-02 -1.0105866463590369e-02  -3.0947673832004398e-02 -1.5152151614280403e-02 -1.2815188275434731e-02  -2.5638476165934725e-02 -1.6858535685977949e-02 -1.5693776599194773e-02  -1.8432951653131253e-02 -1.8432951653131253e-02 -1.8329547755571010e-02  -9.6563626979370883e-03 -1.9557258226612827e-02 -2.0166423194133063e-02  0.0000000000000000e+00 -1.9998755323544264e-02 -2.0869559030121394e-02  -3.8712409798702024e-02 -6.8357619396943129e-03 -5.1399035879855530e-03  -3.8883888582086017e-02 -6.3821521475376022e-03 -6.4168821251075654e-03  -3.8094373800292437e-02 -6.5042911612841195e-03 -8.3653529457548541e-03  -3.6100724306029168e-02 -7.0499828547243796e-03 -1.0913431072412634e-02  -3.2553065620411673e-02 -7.8690381138878905e-03 -1.3924747417994489e-02  -2.7089171966389280e-02 -8.7973917133905895e-03 -1.7167886838100003e-02  -1.9557258226612834e-02 -9.6563626979370848e-03 -2.0166423194133067e-02  -1.0281155450507184e-02 -1.0281155450507182e-02 -2.2272008765721985e-02  0.0000000000000000e+00 -1.0554347244145196e-02 -2.3101570369513182e-02  -3.8982559538213779e-02 0.0000000000000000e+00 -5.2860579202076959e-03  -3.9372019320551781e-02 0.0000000000000000e+00 -6.5312949684739625e-03  -3.8667454721444922e-02 0.0000000000000000e+00 -8.5055702251697913e-03  -3.6692096430614329e-02 0.0000000000000000e+00 -1.1135915197328115e-02  -3.3126761518082491e-02 0.0000000000000000e+00 -1.4286382473053487e-02  -2.7618802467422838e-02 0.0000000000000000e+00 -1.7704604692454391e-02  -1.9998755323544257e-02 0.0000000000000000e+00 -2.0869559030121384e-02  -1.0554347244145196e-02 0.0000000000000000e+00 -2.3101570369513179e-02  0.0000000000000000e+00 0.0000000000000000e+00 -2.4097501420045513e-02  -2.5837499765920570e-02 -2.5837499765920570e-02 2.2679958921292104e-03  -2.6054793688781452e-02 -2.5893473287355809e-02 2.2404056153352568e-04  -2.5728351447018440e-02 -2.6952960507718123e-02 -1.8233894471570368e-03  -2.4430592737678135e-02 -2.8891923058346251e-02 -3.8693873074332149e-03  -2.1883359169739394e-02 -3.1369804740094862e-02 -5.8474206041785838e-03  -1.7978485394802513e-02 -3.3963914650279974e-02 -7.6351414779239381e-03  -1.2810564670074093e-02 -3.6220988558144186e-02 -9.0720983543246692e-03  -6.6831485512678385e-03 -3.7715519678886041e-02 -1.0011570405226334e-02  0.0000000000000000e+00 -3.8033386597571106e-02 -1.0409241813184575e-02  -2.5893473287355803e-02 -2.6054793688781462e-02 2.2404056153353815e-04  -2.5848798397822080e-02 -2.5848798397822101e-02 -1.7448837529094841e-03  -2.5131124782143317e-02 -2.6799928444813548e-02 -3.8354742647448820e-03  -2.3496601395791440e-02 -2.8758029192099733e-02 -5.9696125337751838e-03  -2.0780107667316059e-02 -3.1336835091045019e-02 -8.0584490698479578e-03  -1.6914169583657938e-02 -3.4070852494059868e-02 -9.9600986317355429e-03  -1.1978791209781060e-02 -3.6467836060764015e-02 -1.1488315401424058e-02  -6.2200199432749853e-03 -3.8080145299418000e-02 -1.2457091256279777e-02  0.0000000000000000e+00 -3.8612014447146514e-02 -1.2726451602159048e-02  -2.6952960507718129e-02 -2.5728351447018454e-02 -1.8233894471570372e-03  -2.6799928444813534e-02 -2.5131124782143324e-02 -3.8354742647448742e-03  -2.5998910181107174e-02 -2.5998910181107188e-02 -6.1126146380828684e-03  -2.4256410299438286e-02 -2.7964156158939806e-02 -8.5416608905820226e-03  -2.1421782606377619e-02 -3.0604017872327721e-02 -1.1002684965643342e-02  -1.7421041028602303e-02 -3.3437508557505276e-02 -1.3310655450777384e-02  -1.2322107703744024e-02 -3.5947442602557049e-02 -1.5205617687979279e-02  -6.3788268389247229e-03 -3.7657917486122565e-02 -1.6413821433905740e-02  0.0000000000000000e+00 -3.8275964118581488e-02 -1.6740223347994979e-02  -2.8891923058346244e-02 -2.4430592737678145e-02 -3.8693873074332188e-03  -2.8758029192099712e-02 -2.3496601395791444e-02 -5.9696125337751734e-03  -2.7964156158939806e-02 -2.4256410299438286e-02 -8.5416608905820261e-03  -2.6200326422953901e-02 -2.6200326422953918e-02 -1.1428815126016224e-02  -2.3263019246160952e-02 -2.8861949522395711e-02 -1.4475437990990953e-02  -1.9019107568637627e-02 -3.1756392395807367e-02 -1.7443185397615382e-02  -1.3504531372266489e-02 -3.4349589047904069e-02 -1.9959017971395949e-02  -7.0009875292128126e-03 -3.6126718996782159e-02 -2.1604325622547417e-02  0.0000000000000000e+00 -3.6755321342357317e-02 -2.2094662953381056e-02  -3.1369804740094841e-02 -2.1883359169739391e-02 -5.8474206041785872e-03  -3.1336835091045012e-02 -2.0780107667316056e-02 -8.0584490698479613e-03  -3.0604017872327718e-02 -2.1421782606377622e-02 -1.1002684965643337e-02  -2.8861949522395701e-02 -2.3263019246160959e-02 -1.4475437990990948e-02  -2.5839682799709281e-02 -2.5839682799709298e-02 -1.8285020695872217e-02  -2.1304826322485936e-02 -2.8684058104999851e-02 -2.2143814975958753e-02  -1.5232352961888990e-02 -3.1265705855770765e-02 -2.5529636007052044e-02  -7.9351949304752381e-03 -3.3045766740867080e-02 -2.7810637339743777e-02  0.0000000000000000e+00 -3.3652384726582982e-02 -2.8575235055531861e-02  -3.3963914650279967e-02 -1.7978485394802523e-02 -7.6351414779239467e-03  -3.4070852494059861e-02 -1.6914169583657934e-02 -9.9600986317355429e-03  -3.3437508557505276e-02 -1.7421041028602299e-02 -1.3310655450777377e-02  -3.1756392395807367e-02 -1.9019107568637630e-02 -1.7443185397615382e-02  -2.8684058104999847e-02 -2.1304826322485943e-02 -2.2143814975958753e-02  -2.3866458881440320e-02 -2.3866458881440324e-02 -2.7079334869293231e-02  -1.7191262732026712e-02 -2.6225742266317721e-02 -3.1536367615558419e-02  -9.0048693450392805e-03 -2.7875722773957341e-02 -3.4598248995719255e-02  0.0000000000000000e+00 -2.8449976788100243e-02 -3.5710220013951063e-02  -3.6220988558144179e-02 -1.2810564670074092e-02 -9.0720983543246762e-03  -3.6467836060764008e-02 -1.1978791209781061e-02 -1.1488315401424061e-02  -3.5947442602557049e-02 -1.2322107703744022e-02 -1.5205617687979275e-02  -3.4349589047904076e-02 -1.3504531372266485e-02 -1.9959017971395949e-02  -3.1265705855770758e-02 -1.5232352961888995e-02 -2.5529636007052051e-02  -2.6225742266317725e-02 -1.7191262732026716e-02 -3.1536367615558419e-02  -1.9016867078617668e-02 -1.9016867078617675e-02 -3.7082752854830613e-02  -1.0004134560997089e-02 -2.0319860716781751e-02 -4.0936904432664532e-02  0.0000000000000000e+00 -2.0823291744828807e-02 -4.2393262354557856e-02  -3.7715519678886041e-02 -6.6831485512678437e-03 -1.0011570405226331e-02  -3.8080145299417993e-02 -6.2200199432749844e-03 -1.2457091256279784e-02  -3.7657917486122565e-02 -6.3788268389247246e-03 -1.6413821433905740e-02  -3.6126718996782152e-02 -7.0009875292128126e-03 -2.1604325622547427e-02  -3.3045766740867059e-02 -7.9351949304752398e-03 -2.7810637339743784e-02  -2.7875722773957345e-02 -9.0048693450392771e-03 -3.4598248995719255e-02  -2.0319860716781761e-02 -1.0004134560997085e-02 -4.0936904432664518e-02  -1.0733274136598730e-02 -1.0733274136598733e-02 -4.5386993977811277e-02  0.0000000000000000e+00 -1.1059343872318914e-02 -4.7127429785596212e-02  -3.8033386597571106e-02 0.0000000000000000e+00 -1.0409241813184577e-02  -3.8612014447146507e-02 0.0000000000000000e+00 -1.2726451602159052e-02  -3.8275964118581481e-02 0.0000000000000000e+00 -1.6740223347994982e-02  -3.6755321342357310e-02 0.0000000000000000e+00 -2.2094662953381063e-02  -3.3652384726582975e-02 0.0000000000000000e+00 -2.8575235055531865e-02  -2.8449976788100236e-02 0.0000000000000000e+00 -3.5710220013951070e-02  -2.0823291744828807e-02 0.0000000000000000e+00 -4.2393262354557849e-02  -1.1059343872318918e-02 0.0000000000000000e+00 -4.7127429785596198e-02  0.0000000000000000e+00 0.0000000000000000e+00 -4.9273312755081164e-02  -2.3569738569647000e-02 -2.3569738569647006e-02 3.5417722604399009e-03  -2.3886759863504230e-02 -2.3672434457043968e-02 6.0270025490775643e-04  -2.3722737645928582e-02 -2.4798658205299688e-02 -2.3366852265997544e-03  -2.2665250172294600e-02 -2.6809347856223697e-02 -5.2670924625557551e-03  -2.0423105058879790e-02 -2.9371959917685403e-02 -8.0943637587654275e-03  -1.6866107368152077e-02 -3.2067364064744856e-02 -1.0649943164873697e-02  -1.2067149177379988e-02 -3.4428830458201880e-02 -1.2707350840293018e-02  -6.3157955663913842e-03 -3.6010665706357949e-02 -1.4061782685182735e-02  0.0000000000000000e+00 -3.6376182271833944e-02 -1.4668935087351296e-02  -2.3672434457043950e-02 -2.3886759863504251e-02 6.0270025490776803e-04  -2.3727781632725709e-02 -2.3727781632725726e-02 -2.2625546338727450e-03  -2.3176596333535814e-02 -2.4767159701204914e-02 -5.2962597071476705e-03  -2.1789524397553293e-02 -2.6832009849104561e-02 -8.4004719710684753e-03  -1.9378305508856185e-02 -2.9539409275083108e-02 -1.1443963367405297e-02  -1.5849768279381570e-02 -3.2422815283067799e-02 -1.4223165820134054e-02  -1.1264547382852843e-02 -3.4966560414530952e-02 -1.6464769226465871e-02  -5.8608681027023449e-03 -3.6691515045602370e-02 -1.7898240305284818e-02  0.0000000000000000e+00 -3.7292389043747702e-02 -1.8331151297021262e-02  -2.4798658205299681e-02 -2.3722737645928596e-02 -2.3366852265997522e-03  -2.4767159701204890e-02 -2.3176596333535832e-02 -5.2962597071476766e-03  -2.4161990037832735e-02 -2.4161990037832745e-02 -8.6270854456066085e-03  -2.2704184839248524e-02 -2.6285304862345895e-02 -1.2195090296216890e-02  -2.0200523204491561e-02 -2.9121795966850540e-02 -1.5826453463607761e-02  -1.6531358241625899e-02 -3.2182335528284194e-02 -1.9251715136964453e-02  -1.1739998115528524e-02 -3.4905960564540595e-02 -2.2074663281835227e-02  -6.0865386876308158e-03 -3.6760401555691727e-02 -2.3882574334024600e-02  0.0000000000000000e+00 -3.7431940002084843e-02 -2.4393969388394578e-02  -2.6809347856223686e-02 -2.2665250172294607e-02 -5.2670924625557638e-03  -2.6832009849104541e-02 -2.1789524397553300e-02 -8.4004719710684718e-03  -2.6285304862345892e-02 -2.2704184839248520e-02 -1.2195090296216885e-02  -2.4875270782498491e-02 -2.4875270782498488e-02 -1.6480888888977089e-02  -2.2326297351752959e-02 -2.7831538813