<?xml version="1.0"?>
<VTKFile type="UnstructuredGrid"  version="0.1"  >
<UnstructuredGrid>
<Piece  NumberOfPoints="729" NumberOfCells="3072">
<Points>
<DataArray  type="Float64"  NumberOfComponents="3"  format="ascii">0 0 0  0.125 0 0  0.25 0 0  0.375 0 0  0.5 0 0  0.625 0 0  0.75 0 0  0.875 0 0  1 0 0  0 0.125 0  0.125 0.125 0  0.25 0.125 0  0.375 0.125 0  0.5 0.125 0  0.625 0.125 0  0.75 0.125 0  0.875 0.125 0  1 0.125 0  0 0.25 0  0.125 0.25 0  0.25 0.25 0  0.375 0.25 0  0.5 0.25 0  0.625 0.25 0  0.75 0.25 0  0.875 0.25 0  1 0.25 0  0 0.375 0  0.125 0.375 0  0.25 0.375 0  0.375 0.375 0  0.5 0.375 0  0.625 0.375 0  0.75 0.375 0  0.875 0.375 0  1 0.375 0  0 0.5 0  0.125 0.5 0  0.25 0.5 0  0.375 0.5 0  0.5 0.5 0  0.625 0.5 0  0.75 0.5 0  0.875 0.5 0  1 0.5 0  0 0.625 0  0.125 0.625 0  0.25 0.625 0  0.375 0.625 0  0.5 0.625 0  0.625 0.625 0  0.75 0.625 0  0.875 0.625 0  1 0.625 0  0 0.75 0  0.125 0.75 0  0.25 0.75 0  0.375 0.75 0  0.5 0.75 0  0.625 0.75 0  0.75 0.75 0  0.875 0.75 0  1 0.75 0  0 0.875 0  0.125 0.875 0  0.25 0.875 0  0.375 0.875 0  0.5 0.875 0  0.625 0.875 0  0.75 0.875 0  0.875 0.875 0  1 0.875 0  0 1 0  0.125 1 0  0.25 1 0  0.375 1 0  0.5 1 0  0.625 1 0  0.75 1 0  0.875 1 0  1 1 0  0 0 0.125  0.125 0 0.125  0.25 0 0.125  0.375 0 0.125  0.5 0 0.125  0.625 0 0.125  0.75 0 0.125  0.875 0 0.125  1 0 0.125  0 0.125 0.125  0.125 0.125 0.125  0.25 0.125 0.125  0.375 0.125 0.125  0.5 0.125 0.125  0.625 0.125 0.125  0.75 0.125 0.125  0.875 0.125 0.125  1 0.125 0.125  0 0.25 0.125  0.125 0.25 0.125  0.25 0.25 0.125  0.375 0.25 0.125  0.5 0.25 0.125  0.625 0.25 0.125  0.75 0.25 0.125  0.875 0.25 0.125  1 0.25 0.125  0 0.375 0.125  0.125 0.375 0.125  0.25 0.375 0.125  0.375 0.375 0.125  0.5 0.375 0.125  0.625 0.375 0.125  0.75 0.375 0.125  0.875 0.375 0.125  1 0.375 0.125  0 0.5 0.125  0.125 0.5 0.125  0.25 0.5 0.125  0.375 0.5 0.125  0.5 0.5 0.125  0.625 0.5 0.125  0.75 0.5 0.125  0.875 0.5 0.125  1 0.5 0.125  0 0.625 0.125  0.125 0.625 0.125  0.25 0.625 0.125  0.375 0.625 0.125  0.5 0.625 0.125  0.625 0.625 0.125  0.75 0.625 0.125  0.875 0.625 0.125  1 0.625 0.125  0 0.75 0.125  0.125 0.75 0.125  0.25 0.75 0.125  0.375 0.75 0.125  0.5 0.75 0.125  0.625 0.75 0.125  0.75 0.75 0.125  0.875 0.75 0.125  1 0.75 0.125  0 0.875 0.125  0.125 0.875 0.125  0.25 0.875 0.125  0.375 0.875 0.125  0.5 0.875 0.125  0.625 0.875 0.125  0.75 0.875 0.125  0.875 0.875 0.125  1 0.875 0.125  0 1 0.125  0.125 1 0.125  0.25 1 0.125  0.375 1 0.125  0.5 1 0.125  0.625 1 0.125  0.75 1 0.125  0.875 1 0.125  1 1 0.125  0 0 0.25  0.125 0 0.25  0.25 0 0.25  0.375 0 0.25  0.5 0 0.25  0.625 0 0.25  0.75 0 0.25  0.875 0 0.25  1 0 0.25  0 0.125 0.25  0.125 0.125 0.25  0.25 0.125 0.25  0.375 0.125 0.25  0.5 0.125 0.25  0.625 0.125 0.25  0.75 0.125 0.25  0.875 0.125 0.25  1 0.125 0.25  0 0.25 0.25  0.125 0.25 0.25  0.25 0.25 0.25  0.375 0.25 0.25  0.5 0.25 0.25  0.625 0.25 0.25  0.75 0.25 0.25  0.875 0.25 0.25  1 0.25 0.25  0 0.375 0.25  0.125 0.375 0.25  0.25 0.375 0.25  0.375 0.375 0.25  0.5 0.375 0.25  0.625 0.375 0.25  0.75 0.375 0.25  0.875 0.375 0.25  1 0.375 0.25  0 0.5 0.25  0.125 0.5 0.25  0.25 0.5 0.25  0.375 0.5 0.25  0.5 0.5 0.25  0.625 0.5 0.25  0.75 0.5 0.25  0.875 0.5 0.25  1 0.5 0.25  0 0.625 0.25  0.125 0.625 0.25  0.25 0.625 0.25  0.375 0.625 0.25  0.5 0.625 0.25  0.625 0.625 0.25  0.75 0.625 0.25  0.875 0.625 0.25  1 0.625 0.25  0 0.75 0.25  0.125 0.75 0.25  0.25 0.75 0.25  0.375 0.75 0.25  0.5 0.75 0.25  0.625 0.75 0.25  0.75 0.75 0.25  0.875 0.75 0.25  1 0.75 0.25  0 0.875 0.25  0.125 0.875 0.25  0.25 0.875 0.25  0.375 0.875 0.25  0.5 0.875 0.25  0.625 0.875 0.25  0.75 0.875 0.25  0.875 0.875 0.25  1 0.875 0.25  0 1 0.25  0.125 1 0.25  0.25 1 0.25  0.375 1 0.25  0.5 1 0.25  0.625 1 0.25  0.75 1 0.25  0.875 1 0.25  1 1 0.25  0 0 0.375  0.125 0 0.375  0.25 0 0.375  0.375 0 0.375  0.5 0 0.375  0.625 0 0.375  0.75 0 0.375  0.875 0 0.375  1 0 0.375  0 0.125 0.375  0.125 0.125 0.375  0.25 0.125 0.375  0.375 0.125 0.375  0.5 0.125 0.375  0.625 0.125 0.375  0.75 0.125 0.375  0.875 0.125 0.375  1 0.125 0.375  0 0.25 0.375  0.125 0.25 0.375  0.25 0.25 0.375  0.375 0.25 0.375  0.5 0.25 0.375  0.625 0.25 0.375  0.75 0.25 0.375  0.875 0.25 0.375  1 0.25 0.375  0 0.375 0.375  0.125 0.375 0.375  0.25 0.375 0.375  0.375 0.375 0.375  0.5 0.375 0.375  0.625 0.375 0.375  0.75 0.375 0.375  0.875 0.375 0.375  1 0.375 0.375  0 0.5 0.375  0.125 0.5 0.375  0.25 0.5 0.375  0.375 0.5 0.375  0.5 0.5 0.375  0.625 0.5 0.375  0.75 0.5 0.375  0.875 0.5 0.375  1 0.5 0.375  0 0.625 0.375  0.125 0.625 0.375  0.25 0.625 0.375  0.375 0.625 0.375  0.5 0.625 0.375  0.625 0.625 0.375  0.75 0.625 0.375  0.875 0.625 0.375  1 0.625 0.375  0 0.75 0.375  0.125 0.75 0.375  0.25 0.75 0.375  0.375 0.75 0.375  0.5 0.75 0.375  0.625 0.75 0.375  0.75 0.75 0.375  0.875 0.75 0.375  1 0.75 0.375  0 0.875 0.375  0.125 0.875 0.375  0.25 0.875 0.375  0.375 0.875 0.375  0.5 0.875 0.375  0.625 0.875 0.375  0.75 0.875 0.375  0.875 0.875 0.375  1 0.875 0.375  0 1 0.375  0.125 1 0.375  0.25 1 0.375  0.375 1 0.375  0.5 1 0.375  0.625 1 0.375  0.75 1 0.375  0.875 1 0.375  1 1 0.375  0 0 0.5  0.125 0 0.5  0.25 0 0.5  0.375 0 0.5  0.5 0 0.5  0.625 0 0.5  0.75 0 0.5  0.875 0 0.5  1 0 0.5  0 0.125 0.5  0.125 0.125 0.5  0.25 0.125 0.5  0.375 0.125 0.5  0.5 0.125 0.5  0.625 0.125 0.5  0.75 0.125 0.5  0.875 0.125 0.5  1 0.125 0.5  0 0.25 0.5  0.125 0.25 0.5  0.25 0.25 0.5  0.375 0.25 0.5  0.5 0.25 0.5  0.625 0.25 0.5  0.75 0.25 0.5  0.875 0.25 0.5  1 0.25 0.5  0 0.375 0.5  0.125 0.375 0.5  0.25 0.375 0.5  0.375 0.375 0.5  0.5 0.375 0.5  0.625 0.375 0.5  0.75 0.375 0.5  0.875 0.375 0.5  1 0.375 0.5  0 0.5 0.5  0.125 0.5 0.5  0.25 0.5 0.5  0.375 0.5 0.5  0.5 0.5 0.5  0.625 0.5 0.5  0.75 0.5 0.5  0.875 0.5 0.5  1 0.5 0.5  0 0.625 0.5  0.125 0.625 0.5  0.25 0.625 0.5  0.375 0.625 0.5  0.5 0.625 0.5  0.625 0.625 0.5  0.75 0.625 0.5  0.875 0.625 0.5  1 0.625 0.5  0 0.75 0.5  0.125 0.75 0.5  0.25 0.75 0.5  0.375 0.75 0.5  0.5 0.75 0.5  0.625 0.75 0.5  0.75 0.75 0.5  0.875 0.75 0.5  1 0.75 0.5  0 0.875 0.5  0.125 0.875 0.5  0.25 0.875 0.5  0.375 0.875 0.5  0.5 0.875 0.5  0.625 0.875 0.5  0.75 0.875 0.5  0.875 0.875 0.5  1 0.875 0.5  0 1 0.5  0.125 1 0.5  0.25 1 0.5  0.375 1 0.5  0.5 1 0.5  0.625 1 0.5  0.75 1 0.5  0.875 1 0.5  1 1 0.5  0 0 0.625  0.125 0 0.625  0.25 0 0.625  0.375 0 0.625  0.5 0 0.625  0.625 0 0.625  0.75 0 0.625  0.875 0 0.625  1 0 0.625  0 0.125 0.625  0.125 0.125 0.625  0.25 0.125 0.625  0.375 0.125 0.625  0.5 0.125 0.625  0.625 0.125 0.625  0.75 0.125 0.625  0.875 0.125 0.625  1 0.125 0.625  0 0.25 0.625  0.125 0.25 0.625  0.25 0.25 0.625  0.375 0.25 0.625  0.5 0.25 0.625  0.625 0.25 0.625  0.75 0.25 0.625  0.875 0.25 0.625  1 0.25 0.625  0 0.375 0.625  0.125 0.375 0.625  0.25 0.375 0.625  0.375 0.375 0.625  0.5 0.375 0.625  0.625 0.375 0.625  0.75 0.375 0.625  0.875 0.375 0.625  1 0.375 0.625  0 0.5 0.625  0.125 0.5 0.625  0.25 0.5 0.625  0.375 0.5 0.625  0.5 0.5 0.625  0.625 0.5 0.625  0.75 0.5 0.625  0.875 0.5 0.625  1 0.5 0.625  0 0.625 0.625  0.125 0.625 0.625  0.25 0.625 0.625  0.375 0.625 0.625  0.5 0.625 0.625  0.625 0.625 0.625  0.75 0.625 0.625  0.875 0.625 0.625  1 0.625 0.625  0 0.75 0.625  0.125 0.75 0.625  0.25 0.75 0.625  0.375 0.75 0.625  0.5 0.75 0.625  0.625 0.75 0.625  0.75 0.75 0.625  0.875 0.75 0.625  1 0.75 0.625  0 0.875 0.625  0.125 0.875 0.625  0.25 0.875 0.625  0.375 0.875 0.625  0.5 0.875 0.625  0.625 0.875 0.625  0.75 0.875 0.625  0.875 0.875 0.625  1 0.875 0.625  0 1 0.625  0.125 1 0.625  0.25 1 0.625  0.375 1 0.625  0.5 1 0.625  0.625 1 0.625  0.75 1 0.625  0.875 1 0.625  1 1 0.625  0 0 0.75  0.125 0 0.75  0.25 0 0.75  0.375 0 0.75  0.5 0 0.75  0.625 0 0.75  0.75 0 0.75  0.875 0 0.75  1 0 0.75  0 0.125 0.75  0.125 0.125 0.75  0.25 0.125 0.75  0.375 0.125 0.75  0.5 0.125 0.75  0.625 0.125 0.75  0.75 0.125 0.75  0.875 0.125 0.75  1 0.125 0.75  0 0.25 0.75  0.125 0.25 0.75  0.25 0.25 0.75  0.375 0.25 0.75  0.5 0.25 0.75  0.625 0.25 0.75  0.75 0.25 0.75  0.875 0.25 0.75  1 0.25 0.75  0 0.375 0.75  0.125 0.375 0.75  0.25 0.375 0.75  0.375 0.375 0.75  0.5 0.375 0.75  0.625 0.375 0.75  0.75 0.375 0.75  0.875 0.375 0.75  1 0.375 0.75  0 0.5 0.75  0.125 0.5 0.75  0.25 0.5 0.75  0.375 0.5 0.75  0.5 0.5 0.75  0.625 0.5 0.75  0.75 0.5 0.75  0.875 0.5 0.75  1 0.5 0.75  0 0.625 0.75  0.125 0.625 0.75  0.25 0.625 0.75  0.375 0.625 0.75  0.5 0.625 0.75  0.625 0.625 0.75  0.75 0.625 0.75  0.875 0.625 0.75  1 0.625 0.75  0 0.75 0.75  0.125 0.75 0.75  0.25 0.75 0.75  0.375 0.75 0.75  0.5 0.75 0.75  0.625 0.75 0.75  0.75 0.75 0.75  0.875 0.75 0.75  1 0.75 0.75  0 0.875 0.75  0.125 0.875 0.75  0.25 0.875 0.75  0.375 0.875 0.75  0.5 0.875 0.75  0.625 0.875 0.75  0.75 0.875 0.75  0.875 0.875 0.75  1 0.875 0.75  0 1 0.75  0.125 1 0.75  0.25 1 0.75  0.375 1 0.75  0.5 1 0.75  0.625 1 0.75  0.75 1 0.75  0.875 1 0.75  1 1 0.75  0 0 0.875  0.125 0 0.875  0.25 0 0.875  0.375 0 0.875  0.5 0 0.875  0.625 0 0.875  0.75 0 0.875  0.875 0 0.875  1 0 0.875  0 0.125 0.875  0.125 0.125 0.875  0.25 0.125 0.875  0.375 0.125 0.875  0.5 0.125 0.875  0.625 0.125 0.875  0.75 0.125 0.875  0.875 0.125 0.875  1 0.125 0.875  0 0.25 0.875  0.125 0.25 0.875  0.25 0.25 0.875  0.375 0.25 0.875  0.5 0.25 0.875  0.625 0.25 0.875  0.75 0.25 0.875  0.875 0.25 0.875  1 0.25 0.875  0 0.375 0.875  0.125 0.375 0.875  0.25 0.375 0.875  0.375 0.375 0.875  0.5 0.375 0.875  0.625 0.375 0.875  0.75 0.375 0.875  0.875 0.375 0.875  1 0.375 0.875  0 0.5 0.875  0.125 0.5 0.875  0.25 0.5 0.875  0.375 0.5 0.875  0.5 0.5 0.875  0.625 0.5 0.875  0.75 0.5 0.875  0.875 0.5 0.875  1 0.5 0.875  0 0.625 0.875  0.125 0.625 0.875  0.25 0.625 0.875  0.375 0.625 0.875  0.5 0.625 0.875  0.625 0.625 0.875  0.75 0.625 0.875  0.875 0.625 0.875  1 0.625 0.875  0 0.75 0.875  0.125 0.75 0.875  0.25 0.75 0.875  0.375 0.75 0.875  0.5 0.75 0.875  0.625 0.75 0.875  0.75 0.75 0.875  0.875 0.75 0.875  1 0.75 0.875  0 0.875 0.875  0.125 0.875 0.875  0.25 0.875 0.875  0.375 0.875 0.875  0.5 0.875 0.875  0.625 0.875 0.875  0.75 0.875 0.875  0.
[...]
<PointData  Vectors="f_25"> 
<DataArray  type="Float64"  Name="f_25"  NumberOfComponents="3" format="ascii">-7.0415512927296401e-03 -7.0415512927296427e-03 0.0000000000000000e+00  -6.9769679562273522e-03 -7.0610224083661483e-03 0.0000000000000000e+00  -6.7684242073220262e-03 -7.2907997396880319e-03 0.0000000000000000e+00  -6.3210512264470818e-03 -7.7135659195553714e-03 0.0000000000000000e+00  -5.5748904549305740e-03 -8.2535682752684254e-03 0.0000000000000000e+00  -4.5143865991909690e-03 -8.8136707040284510e-03 0.0000000000000000e+00  -3.1728962544767671e-03 -9.2927661492695594e-03 0.0000000000000000e+00  -1.6309701107017857e-03 -9.5999379920412593e-03 0.0000000000000000e+00  0.0000000000000000e+00 -9.6582852399208184e-03 0.0000000000000000e+00  -7.0610224083661449e-03 -6.9769679562273479e-03 0.0000000000000000e+00  -6.9158475049737149e-03 -6.9158475049737149e-03 0.0000000000000000e+00  -6.6213574900096574e-03 -7.1144077000717815e-03 0.0000000000000000e+00  -6.1054975232737703e-03 -7.5309340967303819e-03 0.0000000000000000e+00  -5.3286177539975622e-03 -8.0803915056707840e-03 0.0000000000000000e+00  -4.2827990807422891e-03 -8.6587978038617681e-03 0.0000000000000000e+00  -2.9970244917215342e-03 -9.1593798235895720e-03 0.0000000000000000e+00  -1.5375713912007200e-03 -9.4885147533004359e-03 0.0000000000000000e+00  0.0000000000000000e+00 -9.5825233583559568e-03 0.0000000000000000e+00  -7.2907997396880258e-03 -6.7684242073220279e-03 0.0000000000000000e+00  -7.1144077000717771e-03 -6.6213574900096583e-03 0.0000000000000000e+00  -6.7876393492905902e-03 -6.7876393492905885e-03 0.0000000000000000e+00  -6.2376680098140723e-03 -7.1897516531776754e-03 0.0000000000000000e+00  -5.4282862782620836e-03 -7.7331929362969695e-03 0.0000000000000000e+00  -4.3526029859421609e-03 -8.3119995141689822e-03 0.0000000000000000e+00  -3.0388140921453039e-03 -8.8184075601620403e-03 0.0000000000000000e+00  -1.5541086352362074e-03 -9.1580787058104952e-03 0.0000000000000000e+00  0.0000000000000000e+00 -9.2693406641949014e-03 0.0000000000000000e+00  -7.7135659195553697e-03 -6.3210512264470758e-03 0.0000000000000000e+00  -7.5309340967303793e-03 -6.1054975232737660e-03 0.0000000000000000e+00  -7.1897516531776737e-03 -6.2376680098140715e-03 0.0000000000000000e+00  -6.6157663360633147e-03 -6.6157663360633086e-03 0.0000000000000000e+00  -5.7673553772397187e-03 -7.1378722566573681e-03 0.0000000000000000e+00  -4.6321851567560305e-03 -7.6991742846091215e-03 0.0000000000000000e+00  -3.2370476709530005e-03 -8.1943095419284399e-03 0.0000000000000000e+00  -1.6552585264453619e-03 -8.5300256557047857e-03 0.0000000000000000e+00  0.0000000000000000e+00 -8.6445605944238321e-03 0.0000000000000000e+00  -8.2535682752684202e-03 -5.5748904549305827e-03 0.0000000000000000e+00  -8.0803915056707840e-03 -5.3286177539975622e-03 0.0000000000000000e+00  -7.7331929362969695e-03 -5.4282862782620853e-03 0.0000000000000000e+00  -7.1378722566573646e-03 -5.7673553772397152e-03 0.0000000000000000e+00  -6.2453232351569596e-03 -6.2453232351569648e-03 0.0000000000000000e+00  -5.0339001448386975e-03 -6.7632104834933551e-03 0.0000000000000000e+00  -3.5274062198424761e-03 -7.2225698005432522e-03 0.0000000000000000e+00  -1.8071085066615389e-03 -7.5356652478895244e-03 0.0000000000000000e+00  0.0000000000000000e+00 -7.6434697085577706e-03 0.0000000000000000e+00  -8.8136707040284389e-03 -4.5143865991909707e-03 0.0000000000000000e+00  -8.6587978038617681e-03 -4.2827990807422838e-03 0.0000000000000000e+00  -8.3119995141689752e-03 -4.3526029859421653e-03 0.0000000000000000e+00  -7.6991742846091197e-03 -4.6321851567560366e-03 0.0000000000000000e+00  -6.7632104834933595e-03 -5.0339001448387018e-03 0.0000000000000000e+00  -5.4718524927728288e-03 -5.4718524927728305e-03 0.0000000000000000e+00  -3.8453025796218909e-03 -5.8616233652964977e-03 0.0000000000000000e+00  -1.9738965101702690e-03 -6.1283366862413041e-03 0.0000000000000000e+00  0.0000000000000000e+00 -6.2208106608515014e-03 0.0000000000000000e+00  -9.2927661492695629e-03 -3.1728962544767566e-03 0.0000000000000000e+00  -9.1593798235895633e-03 -2.9970244917215329e-03 0.0000000000000000e+00  -8.8184075601620473e-03 -3.0388140921453152e-03 0.0000000000000000e+00  -8.1943095419284330e-03 -3.2370476709530130e-03 0.0000000000000000e+00  -7.2225698005432470e-03 -3.5274062198424930e-03 0.0000000000000000e+00  -5.8616233652964986e-03 -3.8453025796218879e-03 0.0000000000000000e+00  -4.1286109816530206e-03 -4.1286109816530154e-03 0.0000000000000000e+00  -2.1220990536371270e-03 -4.3234513228602358e-03 0.0000000000000000e+00  0.0000000000000000e+00 -4.3922738642358169e-03 0.0000000000000000e+00  -9.5999379920412558e-03 -1.6309701107017753e-03 0.0000000000000000e+00  -9.4885147533004307e-03 -1.5375713912007152e-03 0.0000000000000000e+00  -9.1580787058104952e-03 -1.5541086352362080e-03 0.0000000000000000e+00  -8.5300256557047840e-03 -1.6552585264453753e-03 0.0000000000000000e+00  -7.5356652478895270e-03 -1.8071085066615374e-03 0.0000000000000000e+00  -6.1283366862413041e-03 -1.9738965101702582e-03 0.0000000000000000e+00  -4.3234513228602341e-03 -2.1220990536371226e-03 0.0000000000000000e+00  -2.2259721187712603e-03 -2.2259721187712763e-03 0.0000000000000000e+00  0.0000000000000000e+00 -2.2634961179263664e-03 0.0000000000000000e+00  -9.6582852399208080e-03 0.0000000000000000e+00 0.0000000000000000e+00  -9.5825233583559568e-03 0.0000000000000000e+00 0.0000000000000000e+00  -9.2693406641949014e-03 0.0000000000000000e+00 0.0000000000000000e+00  -8.6445605944238304e-03 0.0000000000000000e+00 0.0000000000000000e+00  -7.6434697085577792e-03 0.0000000000000000e+00 0.0000000000000000e+00  -6.2208106608514927e-03 0.0000000000000000e+00 0.0000000000000000e+00  -4.3922738642358196e-03 0.0000000000000000e+00 0.0000000000000000e+00  -2.2634961179263577e-03 0.0000000000000000e+00 0.0000000000000000e+00  0.0000000000000000e+00 0.0000000000000000e+00 0.0000000000000000e+00  -6.8333303321611062e-03 -6.8333303321611097e-03 1.4627046390563994e-04  -6.8254456592613585e-03 -6.8333637843190432e-03 -1.1936117534701124e-04  -6.6643395697116546e-03 -7.0624507477179514e-03 -3.8548866284827119e-04  -6.2598181998953593e-03 -7.4886997925585376e-03 -6.5951826306327017e-04  -5.5512927832464228e-03 -8.0345334072141235e-03 -9.2824081633890196e-04  -4.5206924584583752e-03 -8.6026691527624436e-03 -1.1720965310316933e-03  -3.1978500598013222e-03 -9.0914768730365903e-03 -1.3678520523670112e-03  -1.6587000329837470e-03 -9.4080326234087398e-03 -1.4939731287461962e-03  0.0000000000000000e+00 -9.4626377668430208e-03 -1.5350667564830596e-03  -6.8333637843190466e-03 -6.8254456592613559e-03 -1.1936117534702107e-04  -6.7656885573353339e-03 -6.7656885573353321e-03 -3.7865834721590287e-04  -6.5122529215987249e-03 -6.9610064595877355e-03 -6.4450627411284797e-04  -6.0290667557352075e-03 -7.3790831315653825e-03 -9.2258289099920630e-04  -5.2820509008376275e-03 -7.9339275826918170e-03 -1.1978156422288208e-03  -4.2631904843194353e-03 -8.5203797838279503e-03 -1.4488025915207114e-03  -2.9986965227237479e-03 -9.0300945756769807e-03 -1.6499257207499851e-03  -1.5496334348341632e-03 -9.3676378318556779e-03 -1.7762796808784038e-03  0.0000000000000000e+00 -9.4714184115271098e-03 -1.8080980942127883e-03  -7.0624507477179445e-03 -6.6643395697116572e-03 -3.8548866284828014e-04  -6.9610064595877269e-03 -6.5122529215987258e-03 -6.4450627411284395e-04  -6.6771328574197989e-03 -6.6771328574198006e-03 -9.2816729754419429e-04  -6.1602778124226218e-03 -7.0826652687254552e-03 -1.2391124158127960e-03  -5.3809408293531936e-03 -7.6338818424451903e-03 -1.5562761645740010e-03  -4.3328669980753267e-03 -8.2234068270185447e-03 -1.8527532842409131e-03  -3.0412717504275945e-03 -8.7412285384280818e-03 -2.0948420560559832e-03  -1.5672333761472053e-03 -9.0908295601916794e-03 -2.2482415650853546e-03  0.0000000000000000e+00 -9.2135251772166964e-03 -2.2871910921790084e-03  -7.4886997925585350e-03 -6.2598181998953497e-03 -6.5951826306327060e-04  -7.3790831315653799e-03 -6.0290667557352058e-03 -9.2258289099920912e-04  -7.0826652687254552e-03 -6.1602778124226236e-03 -1.2391124158127977e-03  -6.5450109892909673e-03 -6.5450109892909716e-03 -1.6028197672439035e-03  -5.7296266579332294e-03 -7.0789127364432559e-03 -1.9865860413110373e-03  -4.6241132755338336e-03 -7.6553729125430608e-03 -2.3565787804998161e-03  -3.2511136144316292e-03 -8.1660650585848558e-03 -2.6670051541996176e-03  -1.6762838823975719e-03 -8.5142558551386232e-03 -2.8688956739543114e-03  0.0000000000000000e+00 -8.6385641633710611e-03 -2.9279497342460771e-03  -8.0345334072141200e-03 -5.5512927832464254e-03 -9.2824081633891377e-04  -7.9339275826918083e-03 -5.2820509008376301e-03 -1.1978156422288136e-03  -7.6338818424451929e-03 -5.3809408293531962e-03 -1.5562761645739902e-03  -7.0789127364432524e-03 -5.7296266579332355e-03 -1.9865860413110351e-03  -6.2236315272743209e-03 -6.2236315272743261e-03 -2.4549652988935765e-03  -5.0448047032483779e-03 -6.7616618155901219e-03 -2.9204547840651117e-03  -3.5600332801466600e-03 -7.2416024311509185e-03 -3.3218654829183232e-03  -1.8407336598497738e-03 -7.5706774785659296e-03 -3.5902594695512587e-03  0.0000000000000000e+00 -7.6868608724852110e-03 -3.6803435367912191e-03  -8.6026691527624419e-03 -4.5206924584583778e-03 -1.1720965310316864e-03  -8.5203797838279520e-03 -4.2631904843194388e-03 -1.4488025915207065e-03  -8.2234068270185413e-03 -4.3328669980753380e-03 -1.8527532842409059e-03  -7.6553729125430634e-03 -4.6241132755338423e-03 -2.3565787804998152e-03  -6.7616618155901184e-03 -5.0448047032483892e-03 -2.9204547840651113e-03  -5.5064341282809797e-03 -5.5064341282809884e-03 -3.4956713682611292e-03  -3.9009060377141747e-03 -5.9205562658004749e-03 -4.0020676244063979e-03  -2.0230831778827417e-03 -6.2064801466419238e-03 -4.3464384956424726e-03  0.0000000000000000e+00 -6.3087789759330637e-03 -4.4717289316694980e-03  -9.0914768730365816e-03 -3.1978500598013183e-03 -1.3678520523670071e-03  -9.0300945756769894e-03 -2.9986965227237496e-03 -1.6499257207499803e-03  -8.7412285384280766e-03 -3.0412717504276062e-03 -2.0948420560559819e-03  -8.1660650585848524e-03 -3.2511136144316357e-03 -2.6670051541996197e-03  -7.2416024311509194e-03 -3.5600332801466752e-03 -3.3218654829183241e-03  -5.9205562658004680e-03 -3.9009060377141773e-03 -4.0020676244063901e-03  -4.2077591766070104e-03 -4.2077591766070113e-03 -4.6087353616033212e-03  -2.1870029176091332e-03 -4.4216721441363389e-03 -5.0244714909860643e-03  0.0000000000000000e+00 -4.5031175373056887e-03 -5.1803991555284101e-03  -9.4080326234087276e-03 -1.6587000329837352e-03 -1.4939731287461930e-03  -9.3676378318556693e-03 -1.5496334348341586e-03 -1.7762796808784077e-03  -9.0908295601916812e-03 -1.5672333761472077e-03 -2.2482415650853559e-03  -8.5142558551386319e-03 -1.6762838823975723e-03 -2.8688956739543127e-03  -7.5706774785659382e-03 -1.8407336598497692e-03 -3.5902594695512539e-03  -6.2064801466419246e-03 -2.0230831778827395e-03 -4.3464384956424656e-03  -4.4216721441363458e-03 -2.1870029176091319e-03 -5.0244714909860591e-03  -2.3031457143892304e-03 -2.3031457143892339e-03 -5.4916062948348297e-03  0.0000000000000000e+00 -2.3520688182402396e-03 -5.6715942389342347e-03  -9.4626377668430173e-03 0.0000000000000000e+00 -1.5350667564830735e-03  -9.4714184115271081e-03 0.0000000000000000e+00 -1.8080980942127883e-03  -9.2135251772167016e-03 0.0000000000000000e+00 -2.2871910921790062e-03  -8.6385641633710576e-03 0.0000000000000000e+00 -2.9279497342460771e-03  -7.6868608724852180e-03 0.0000000000000000e+00 -3.6803435367912139e-03  -6.3087789759330611e-03 0.0000000000000000e+00 -4.4717289316694954e-03  -4.5031175373056913e-03 0.0000000000000000e+00 -5.1803991555284066e-03  -2.3520688182402344e-03 0.0000000000000000e+00 -5.6715942389342312e-03  0.0000000000000000e+00 0.0000000000000000e+00 -5.8886392917060311e-03  -6.4998345160175320e-03 -6.4998345160175311e-03 3.0356318496072639e-04  -6.5172232165650905e-03 -6.5083178976122142e-03 -1.9836320221537846e-04  -6.3997462375952954e-03 -6.7506851729546300e-03 -7.2367369015664167e-04  -6.0453939645437067e-03 -7.1991972590929199e-03 -1.2622597657900938e-03  -5.3894240251708492e-03 -7.7731194424571267e-03 -1.7894329677527879e-03  -4.4093474292944482e-03 -8.3722390577836790e-03 -2.2684624998389616e-03  -3.1313351524169435e-03 -8.8901920838182873e-03 -2.6547510722984579e-03  -1.6295980587585832e-03 -9.2288072227339896e-03 -2.9086502652267321e-03  0.0000000000000000e+00 -9.2938327774602317e-03 -3.0175051424380828e-03  -6.5083178976122124e-03 -6.5172232165650965e-03 -1.9836320221538066e-04  -6.4606960436125443e-03 -6.4606960436125451e-03 -6.7387357680595257e-04  -6.2484668699392164e-03 -6.6711690284067702e-03 -1.2027636549992011e-03  -5.8125456847007645e-03 -7.1160296157320342e-03 -1.7551951342936844e-03  -5.1155747893789228e-03 -7.7051569076629208e-03 -2.3013389120487473e-03  -4.1456118430956337e-03 -8.3295081852121679e-03 -2.8004693629275911e-03  -2.9257525974821581e-03 -8.8744894762174693e-03 -3.2025261285269545e-03  -1.5159273696878522e-03 -9.2374903826071067e-03 -3.4588524998587760e-03  0.0000000000000000e+00 -9.3518184384895845e-03 -3.5329513060204380e-03  -6.7506851729546274e-03 -6.3997462375952937e-03 -7.2367369015665013e-04  -6.6711690284067702e-03 -6.2484668699392129e-03 -1.2027636549992024e-03  -6.4341191590430212e-03 -6.4341191590430221e-03 -1.7741476491376724e-03  -5.9681141020386961e-03 -6.8728846843242848e-03 -2.3961636524830335e-03  -5.2403365127066817e-03 -7.4661725942084551e-03 -3.0301293296996238e-03  -4.2390124623802525e-03 -8.1022261508612234e-03 -3.6246317098104380e-03  -2.9856431650536639e-03 -8.6626084880835341e-03 -4.1122705780349848e-03  -1.5417030559537334e-03 -9.0411881715817804e-03 -4.4243445324362559e-03  0.0000000000000000e+00 -9.1746993903898798e-03 -4.5125483063929604e-03  -7.1991972590929182e-03 -6.0453939645436980e-03 -1.2622597657900940e-03  -7.1160296157320429e-03 -5.8125456847007680e-03 -1.7551951342936890e-03  -6.8728846843242779e-03 -5.9681141020387065e-03 -2.3961636524830331e-03  -6.3935139064142136e-03 -6.3935139064142162e-03 -3.1283733436285534e-03  -5.6346979804571731e-03 -6.9794231931572222e-03 -3.9020171215387090e-03  -4.5743998833032672e-03 -7.6139831080285067e-03 -4.6518782054912212e-03  -3.2297600738439426e-03 -8.1775905821700658e-03 -5.2840356484173357e-03  -1.6687760849579832e-03 -8.5599379069910310e-03 -5.6977099567699944e-03  0.0000000000000000e+00 -8.6929919746342454e-03 -5.8260305299861273e-03  -7.7731194424571345e-03 -5.3894240251708544e-03 -1.7894329677527912e-03  -7.7051569076629269e-03 -5.1155747893789306e-03 -2.3013389120487369e-03  -7.4661725942084404e-03 -5.2403365127066896e-03 -3.0301293296996156e-03  -6.9794231931572127e-03 -5.6346979804571817e-03 -3.9020171215387069e-03  -6.1885886620408762e-03 -6.1885886620408814e-03 -4.8549661535181726e-03  -5.0543834916205888e-03 -6.7945233494966428e-03 -5.8099562972062603e-03  -3.5858279424248541e-03 -7.3367105842798239e-03 -6.6382237962478198e-03  -1.8592127054429721e-03 -7.7052509637772406e-03 -7.1937294099368321e-03  0.0000000000000000e+00 -7.8282159053194352e-03 -7.3842433246588774e-03  -8.3722390577836772e-03 -4.4093474292944516e-03 -2.2684624998389612e-03  -8.3295081852121679e-03 -4.1456118430956328e-03 -2.8004693629275854e-03  -8.1022261508612130e-03 -4.2390124623802603e-03 -3.6246317098104293e-03  -7.6139831080285049e-03 -4.5743998833032776e-03 -4.6518782054912194e-03  -6.7945233494966419e-03 -5.0543834916205984e-03 -5.8099562972062681e-03  -5.5837876170673831e-03 -5.5837876170673883e-03 -7.0052288457312364e-03  -3.9804074614004110e-03 -6.0609387558609382e-03 -8.0644098473905343e-03  -2.0710710401049717e-03 -6.3878669286648307e-03 -8.7844762550204850e-03  0.0000000000000000e+00 -6.4980019770752278e-03 -9.0459375225616246e-03  -8.8901920838182994e-03 -3.1313351524169474e-03 -2.6547510722984510e-03  -8.8744894762174693e-03 -2.9257525974821655e-03 -3.2025261285269471e-03  -8.6626084880835393e-03 -2.9856431650536770e-03 -4.1122705780349761e-03  -8.1775905821700606e-03 -3.2297600738439487e-03 -5.2840356484173288e-03  -7.3367105842798196e-03 -3.5858279424248558e-03 -6.6382237962478241e-03  -6.0609387558609364e-03 -3.9804074614004118e-03 -8.0644098473905343e-03  -4.3374409003618369e-03 -4.3374409003618334e-03 -9.3465911367447349e-03  -2.2620247302717039e-03 -4.5854620517836470e-03 -1.0223714862582759e-02  0.0000000000000000e+00 -4.6770842299993735e-03 -1.0549051107397598e-02  -9.2288072227339861e-03 -1.6295980587585851e-03 -2.9086502652267213e-03  -9.2374903826071154e-03 -1.5159273696878570e-03 -3.4588524998587708e-03  -9.0411881715817786e-03 -1.5417030559537268e-03 -4.4243445324362507e-03  -8.5599379069910379e-03 -1.6687760849579849e-03 -5.6977099567699944e-03  -7.7052509637772423e-03 -1.8592127054429793e-03 -7.1937294099368347e-03  -6.3878669286648307e-03 -2.0710710401049700e-03 -8.7844762550204833e-03  -4.5854620517836496e-03 -2.2620247302716960e-03 -1.0223714862582757e-02  -2.3971139033508366e-03 -2.3971139033508357e-03 -1.1215230231887252e-02  0.0000000000000000e+00 -2.4545302811058824e-03 -1.1594653172836956e-02  -9.2938327774602265e-03 0.0000000000000000e+00 -3.0175051424380780e-03  -9.3518184384895845e-03 0.0000000000000000e+00 -3.5329513060204380e-03  -9.1746993903898833e-03 0.0000000000000000e+00 -4.5125483063929587e-03  -8.6929919746342489e-03 0.0000000000000000e+00 -5.8260305299861273e-03  -7.8282159053194370e-03 0.0000000000000000e+00 -7.3842433246588748e-03  -6.4980019770752295e-03 0.0000000000000000e+00 -9.0459375225616229e-03  -4.6770842299993761e-03 0.0000000000000000e+00 -1.0549051107397598e-02  -2.4545302811058820e-03 0.0000000000000000e+00 -1.1594653172836955e-02  0.0000000000000000e+00 0.0000000000000000e+00 -1.2062945724606040e-02  -5.9736512584269239e-03 -5.9736512584269204e-03 5.3967433818902873e-04  -6.0228426615220937e-03 -5.9923353098467374e-03 -1.9154315545627895e-04  -5.9502098326744907e-03 -6.2583008894370167e-03 -9.5055725827567774e-04  -5.6566843177087295e-03 -6.7370029912184621e-03 -1.7249982120238166e-03  -5.0736953254983379e-03 -7.3468396325763723e-03 -2.4813148514353399e-03  -4.1728426350325105e-03 -7.9859343609477076e-03 -3.1690084577724207e-03  -2.9752749758150390e-03 -8.5421025195568344e-03 -3.7247297252472364e-03  -1.5531315976240044e-03 -8.9099509815318747e-03 -4.0925850685834438e-03  0.0000000000000000e+00 -8.9870585219930261e-03 -4.2598259782882500e-03  -5.9923353098467382e-03 -6.0228426615220989e-03 -1.9154315545628572e-04  -5.9744467550534881e-03 -5.9744467550534846e-03 -8.9338091376443645e-04  -5.8051738557698103e-03 -6.2130673354123872e-03 -1.6668007667762666e-03  -5.4295535305567497e-03 -6.6967388791001597e-03 -2.4746660808487668e-03  -4.8045506053789461e-03 -7.3328342362071527e-03 -3.2744574018128175e-03  -3.9116897994885816e-03 -8.0092575993290244e-03 -4.0078455383037457e-03  -2.7696175893752333e-03 -8.6030481896546395e-03 -4.6007643155534100e-03  -1.4373614986851128e-03 -9.0017048293627739e-03 -4.9813990933709655e-03  0.0000000000000000e+00 -9.1347300064326883e-03 -5.0985626758277731e-03  -6.2583008894370219e-03 -5.9502098326744924e-03 -9.5055725827569368e-04  -6.2130673354123802e-03 -5.8051738557698095e-03 -1.6668007667762642e-03  -6.0248953862827963e-03 -6.0248953862827989e-03 -2.5105543351743149e-03  -5.6264642041145051e-03 -6.5136959246549957e-03 -3.4310920688694767e-03  -4.9750730450127279e-03 -7.1688423635586614e-03 -4.3734533307549263e-03  -4.0480352667547556e-03 -7.8738555224210794e-03 -5.2626967259053912e-03  -2.8613688224776060e-03 -8.4973394302053761e-03 -5.9951025476423147e-03  -1.4789618734746797e-03 -8.9179717929893914e-03 -6.4651663494505731e-03  0.0000000000000000e+00 -9.0665346518157743e-03 -6.6013298831418465e-03  -6.7370029912184595e-03 -5.6566843177087347e-03 -1.7249982120238184e-03  -6.6967388791001649e-03 -5.4295535305567454e-03 -2.4746660808487590e-03  -6.5136959246549905e-03 -5.6264642041145172e-03 -3.4310920688694706e-03  -6.1158419062127311e-03 -6.1158419062127397e-03 -4.5279309959501239e-03  -5.4436476362618256e-03 -6.7830