<?xml version="1.0"?>
<VTKFile type="UnstructuredGrid"  version="0.1"  >
<UnstructuredGrid>
<Piece  NumberOfPoints="729" NumberOfCells="3072">
<Points>
<DataArray  type="Float64"  NumberOfComponents="3"  format="ascii">0 0 0  0.125 0 0  0.25 0 0  0.375 0 0  0.5 0 0  0.625 0 0  0.75 0 0  0.875 0 0  1 0 0  0 0.125 0  0.125 0.125 0  0.25 0.125 0  0.375 0.125 0  0.5 0.125 0  0.625 0.125 0  0.75 0.125 0  0.875 0.125 0  1 0.125 0  0 0.25 0  0.125 0.25 0  0.25 0.25 0  0.375 0.25 0  0.5 0.25 0  0.625 0.25 0  0.75 0.25 0  0.875 0.25 0  1 0.25 0  0 0.375 0  0.125 0.375 0  0.25 0.375 0  0.375 0.375 0  0.5 0.375 0  0.625 0.375 0  0.75 0.375 0  0.875 0.375 0  1 0.375 0  0 0.5 0  0.125 0.5 0  0.25 0.5 0  0.375 0.5 0  0.5 0.5 0  0.625 0.5 0  0.75 0.5 0  0.875 0.5 0  1 0.5 0  0 0.625 0  0.125 0.625 0  0.25 0.625 0  0.375 0.625 0  0.5 0.625 0  0.625 0.625 0  0.75 0.625 0  0.875 0.625 0  1 0.625 0  0 0.75 0  0.125 0.75 0  0.25 0.75 0  0.375 0.75 0  0.5 0.75 0  0.625 0.75 0  0.75 0.75 0  0.875 0.75 0  1 0.75 0  0 0.875 0  0.125 0.875 0  0.25 0.875 0  0.375 0.875 0  0.5 0.875 0  0.625 0.875 0  0.75 0.875 0  0.875 0.875 0  1 0.875 0  0 1 0  0.125 1 0  0.25 1 0  0.375 1 0  0.5 1 0  0.625 1 0  0.75 1 0  0.875 1 0  1 1 0  0 0 0.125  0.125 0 0.125  0.25 0 0.125  0.375 0 0.125  0.5 0 0.125  0.625 0 0.125  0.75 0 0.125  0.875 0 0.125  1 0 0.125  0 0.125 0.125  0.125 0.125 0.125  0.25 0.125 0.125  0.375 0.125 0.125  0.5 0.125 0.125  0.625 0.125 0.125  0.75 0.125 0.125  0.875 0.125 0.125  1 0.125 0.125  0 0.25 0.125  0.125 0.25 0.125  0.25 0.25 0.125  0.375 0.25 0.125  0.5 0.25 0.125  0.625 0.25 0.125  0.75 0.25 0.125  0.875 0.25 0.125  1 0.25 0.125  0 0.375 0.125  0.125 0.375 0.125  0.25 0.375 0.125  0.375 0.375 0.125  0.5 0.375 0.125  0.625 0.375 0.125  0.75 0.375 0.125  0.875 0.375 0.125  1 0.375 0.125  0 0.5 0.125  0.125 0.5 0.125  0.25 0.5 0.125  0.375 0.5 0.125  0.5 0.5 0.125  0.625 0.5 0.125  0.75 0.5 0.125  0.875 0.5 0.125  1 0.5 0.125  0 0.625 0.125  0.125 0.625 0.125  0.25 0.625 0.125  0.375 0.625 0.125  0.5 0.625 0.125  0.625 0.625 0.125  0.75 0.625 0.125  0.875 0.625 0.125  1 0.625 0.125  0 0.75 0.125  0.125 0.75 0.125  0.25 0.75 0.125  0.375 0.75 0.125  0.5 0.75 0.125  0.625 0.75 0.125  0.75 0.75 0.125  0.875 0.75 0.125  1 0.75 0.125  0 0.875 0.125  0.125 0.875 0.125  0.25 0.875 0.125  0.375 0.875 0.125  0.5 0.875 0.125  0.625 0.875 0.125  0.75 0.875 0.125  0.875 0.875 0.125  1 0.875 0.125  0 1 0.125  0.125 1 0.125  0.25 1 0.125  0.375 1 0.125  0.5 1 0.125  0.625 1 0.125  0.75 1 0.125  0.875 1 0.125  1 1 0.125  0 0 0.25  0.125 0 0.25  0.25 0 0.25  0.375 0 0.25  0.5 0 0.25  0.625 0 0.25  0.75 0 0.25  0.875 0 0.25  1 0 0.25  0 0.125 0.25  0.125 0.125 0.25  0.25 0.125 0.25  0.375 0.125 0.25  0.5 0.125 0.25  0.625 0.125 0.25  0.75 0.125 0.25  0.875 0.125 0.25  1 0.125 0.25  0 0.25 0.25  0.125 0.25 0.25  0.25 0.25 0.25  0.375 0.25 0.25  0.5 0.25 0.25  0.625 0.25 0.25  0.75 0.25 0.25  0.875 0.25 0.25  1 0.25 0.25  0 0.375 0.25  0.125 0.375 0.25  0.25 0.375 0.25  0.375 0.375 0.25  0.5 0.375 0.25  0.625 0.375 0.25  0.75 0.375 0.25  0.875 0.375 0.25  1 0.375 0.25  0 0.5 0.25  0.125 0.5 0.25  0.25 0.5 0.25  0.375 0.5 0.25  0.5 0.5 0.25  0.625 0.5 0.25  0.75 0.5 0.25  0.875 0.5 0.25  1 0.5 0.25  0 0.625 0.25  0.125 0.625 0.25  0.25 0.625 0.25  0.375 0.625 0.25  0.5 0.625 0.25  0.625 0.625 0.25  0.75 0.625 0.25  0.875 0.625 0.25  1 0.625 0.25  0 0.75 0.25  0.125 0.75 0.25  0.25 0.75 0.25  0.375 0.75 0.25  0.5 0.75 0.25  0.625 0.75 0.25  0.75 0.75 0.25  0.875 0.75 0.25  1 0.75 0.25  0 0.875 0.25  0.125 0.875 0.25  0.25 0.875 0.25  0.375 0.875 0.25  0.5 0.875 0.25  0.625 0.875 0.25  0.75 0.875 0.25  0.875 0.875 0.25  1 0.875 0.25  0 1 0.25  0.125 1 0.25  0.25 1 0.25  0.375 1 0.25  0.5 1 0.25  0.625 1 0.25  0.75 1 0.25  0.875 1 0.25  1 1 0.25  0 0 0.375  0.125 0 0.375  0.25 0 0.375  0.375 0 0.375  0.5 0 0.375  0.625 0 0.375  0.75 0 0.375  0.875 0 0.375  1 0 0.375  0 0.125 0.375  0.125 0.125 0.375  0.25 0.125 0.375  0.375 0.125 0.375  0.5 0.125 0.375  0.625 0.125 0.375  0.75 0.125 0.375  0.875 0.125 0.375  1 0.125 0.375  0 0.25 0.375  0.125 0.25 0.375  0.25 0.25 0.375  0.375 0.25 0.375  0.5 0.25 0.375  0.625 0.25 0.375  0.75 0.25 0.375  0.875 0.25 0.375  1 0.25 0.375  0 0.375 0.375  0.125 0.375 0.375  0.25 0.375 0.375  0.375 0.375 0.375  0.5 0.375 0.375  0.625 0.375 0.375  0.75 0.375 0.375  0.875 0.375 0.375  1 0.375 0.375  0 0.5 0.375  0.125 0.5 0.375  0.25 0.5 0.375  0.375 0.5 0.375  0.5 0.5 0.375  0.625 0.5 0.375  0.75 0.5 0.375  0.875 0.5 0.375  1 0.5 0.375  0 0.625 0.375  0.125 0.625 0.375  0.25 0.625 0.375  0.375 0.625 0.375  0.5 0.625 0.375  0.625 0.625 0.375  0.75 0.625 0.375  0.875 0.625 0.375  1 0.625 0.375  0 0.75 0.375  0.125 0.75 0.375  0.25 0.75 0.375  0.375 0.75 0.375  0.5 0.75 0.375  0.625 0.75 0.375  0.75 0.75 0.375  0.875 0.75 0.375  1 0.75 0.375  0 0.875 0.375  0.125 0.875 0.375  0.25 0.875 0.375  0.375 0.875 0.375  0.5 0.875 0.375  0.625 0.875 0.375  0.75 0.875 0.375  0.875 0.875 0.375  1 0.875 0.375  0 1 0.375  0.125 1 0.375  0.25 1 0.375  0.375 1 0.375  0.5 1 0.375  0.625 1 0.375  0.75 1 0.375  0.875 1 0.375  1 1 0.375  0 0 0.5  0.125 0 0.5  0.25 0 0.5  0.375 0 0.5  0.5 0 0.5  0.625 0 0.5  0.75 0 0.5  0.875 0 0.5  1 0 0.5  0 0.125 0.5  0.125 0.125 0.5  0.25 0.125 0.5  0.375 0.125 0.5  0.5 0.125 0.5  0.625 0.125 0.5  0.75 0.125 0.5  0.875 0.125 0.5  1 0.125 0.5  0 0.25 0.5  0.125 0.25 0.5  0.25 0.25 0.5  0.375 0.25 0.5  0.5 0.25 0.5  0.625 0.25 0.5  0.75 0.25 0.5  0.875 0.25 0.5  1 0.25 0.5  0 0.375 0.5  0.125 0.375 0.5  0.25 0.375 0.5  0.375 0.375 0.5  0.5 0.375 0.5  0.625 0.375 0.5  0.75 0.375 0.5  0.875 0.375 0.5  1 0.375 0.5  0 0.5 0.5  0.125 0.5 0.5  0.25 0.5 0.5  0.375 0.5 0.5  0.5 0.5 0.5  0.625 0.5 0.5  0.75 0.5 0.5  0.875 0.5 0.5  1 0.5 0.5  0 0.625 0.5  0.125 0.625 0.5  0.25 0.625 0.5  0.375 0.625 0.5  0.5 0.625 0.5  0.625 0.625 0.5  0.75 0.625 0.5  0.875 0.625 0.5  1 0.625 0.5  0 0.75 0.5  0.125 0.75 0.5  0.25 0.75 0.5  0.375 0.75 0.5  0.5 0.75 0.5  0.625 0.75 0.5  0.75 0.75 0.5  0.875 0.75 0.5  1 0.75 0.5  0 0.875 0.5  0.125 0.875 0.5  0.25 0.875 0.5  0.375 0.875 0.5  0.5 0.875 0.5  0.625 0.875 0.5  0.75 0.875 0.5  0.875 0.875 0.5  1 0.875 0.5  0 1 0.5  0.125 1 0.5  0.25 1 0.5  0.375 1 0.5  0.5 1 0.5  0.625 1 0.5  0.75 1 0.5  0.875 1 0.5  1 1 0.5  0 0 0.625  0.125 0 0.625  0.25 0 0.625  0.375 0 0.625  0.5 0 0.625  0.625 0 0.625  0.75 0 0.625  0.875 0 0.625  1 0 0.625  0 0.125 0.625  0.125 0.125 0.625  0.25 0.125 0.625  0.375 0.125 0.625  0.5 0.125 0.625  0.625 0.125 0.625  0.75 0.125 0.625  0.875 0.125 0.625  1 0.125 0.625  0 0.25 0.625  0.125 0.25 0.625  0.25 0.25 0.625  0.375 0.25 0.625  0.5 0.25 0.625  0.625 0.25 0.625  0.75 0.25 0.625  0.875 0.25 0.625  1 0.25 0.625  0 0.375 0.625  0.125 0.375 0.625  0.25 0.375 0.625  0.375 0.375 0.625  0.5 0.375 0.625  0.625 0.375 0.625  0.75 0.375 0.625  0.875 0.375 0.625  1 0.375 0.625  0 0.5 0.625  0.125 0.5 0.625  0.25 0.5 0.625  0.375 0.5 0.625  0.5 0.5 0.625  0.625 0.5 0.625  0.75 0.5 0.625  0.875 0.5 0.625  1 0.5 0.625  0 0.625 0.625  0.125 0.625 0.625  0.25 0.625 0.625  0.375 0.625 0.625  0.5 0.625 0.625  0.625 0.625 0.625  0.75 0.625 0.625  0.875 0.625 0.625  1 0.625 0.625  0 0.75 0.625  0.125 0.75 0.625  0.25 0.75 0.625  0.375 0.75 0.625  0.5 0.75 0.625  0.625 0.75 0.625  0.75 0.75 0.625  0.875 0.75 0.625  1 0.75 0.625  0 0.875 0.625  0.125 0.875 0.625  0.25 0.875 0.625  0.375 0.875 0.625  0.5 0.875 0.625  0.625 0.875 0.625  0.75 0.875 0.625  0.875 0.875 0.625  1 0.875 0.625  0 1 0.625  0.125 1 0.625  0.25 1 0.625  0.375 1 0.625  0.5 1 0.625  0.625 1 0.625  0.75 1 0.625  0.875 1 0.625  1 1 0.625  0 0 0.75  0.125 0 0.75  0.25 0 0.75  0.375 0 0.75  0.5 0 0.75  0.625 0 0.75  0.75 0 0.75  0.875 0 0.75  1 0 0.75  0 0.125 0.75  0.125 0.125 0.75  0.25 0.125 0.75  0.375 0.125 0.75  0.5 0.125 0.75  0.625 0.125 0.75  0.75 0.125 0.75  0.875 0.125 0.75  1 0.125 0.75  0 0.25 0.75  0.125 0.25 0.75  0.25 0.25 0.75  0.375 0.25 0.75  0.5 0.25 0.75  0.625 0.25 0.75  0.75 0.25 0.75  0.875 0.25 0.75  1 0.25 0.75  0 0.375 0.75  0.125 0.375 0.75  0.25 0.375 0.75  0.375 0.375 0.75  0.5 0.375 0.75  0.625 0.375 0.75  0.75 0.375 0.75  0.875 0.375 0.75  1 0.375 0.75  0 0.5 0.75  0.125 0.5 0.75  0.25 0.5 0.75  0.375 0.5 0.75  0.5 0.5 0.75  0.625 0.5 0.75  0.75 0.5 0.75  0.875 0.5 0.75  1 0.5 0.75  0 0.625 0.75  0.125 0.625 0.75  0.25 0.625 0.75  0.375 0.625 0.75  0.5 0.625 0.75  0.625 0.625 0.75  0.75 0.625 0.75  0.875 0.625 0.75  1 0.625 0.75  0 0.75 0.75  0.125 0.75 0.75  0.25 0.75 0.75  0.375 0.75 0.75  0.5 0.75 0.75  0.625 0.75 0.75  0.75 0.75 0.75  0.875 0.75 0.75  1 0.75 0.75  0 0.875 0.75  0.125 0.875 0.75  0.25 0.875 0.75  0.375 0.875 0.75  0.5 0.875 0.75  0.625 0.875 0.75  0.75 0.875 0.75  0.875 0.875 0.75  1 0.875 0.75  0 1 0.75  0.125 1 0.75  0.25 1 0.75  0.375 1 0.75  0.5 1 0.75  0.625 1 0.75  0.75 1 0.75  0.875 1 0.75  1 1 0.75  0 0 0.875  0.125 0 0.875  0.25 0 0.875  0.375 0 0.875  0.5 0 0.875  0.625 0 0.875  0.75 0 0.875  0.875 0 0.875  1 0 0.875  0 0.125 0.875  0.125 0.125 0.875  0.25 0.125 0.875  0.375 0.125 0.875  0.5 0.125 0.875  0.625 0.125 0.875  0.75 0.125 0.875  0.875 0.125 0.875  1 0.125 0.875  0 0.25 0.875  0.125 0.25 0.875  0.25 0.25 0.875  0.375 0.25 0.875  0.5 0.25 0.875  0.625 0.25 0.875  0.75 0.25 0.875  0.875 0.25 0.875  1 0.25 0.875  0 0.375 0.875  0.125 0.375 0.875  0.25 0.375 0.875  0.375 0.375 0.875  0.5 0.375 0.875  0.625 0.375 0.875  0.75 0.375 0.875  0.875 0.375 0.875  1 0.375 0.875  0 0.5 0.875  0.125 0.5 0.875  0.25 0.5 0.875  0.375 0.5 0.875  0.5 0.5 0.875  0.625 0.5 0.875  0.75 0.5 0.875  0.875 0.5 0.875  1 0.5 0.875  0 0.625 0.875  0.125 0.625 0.875  0.25 0.625 0.875  0.375 0.625 0.875  0.5 0.625 0.875  0.625 0.625 0.875  0.75 0.625 0.875  0.875 0.625 0.875  1 0.625 0.875  0 0.75 0.875  0.125 0.75 0.875  0.25 0.75 0.875  0.375 0.75 0.875  0.5 0.75 0.875  0.625 0.75 0.875  0.75 0.75 0.875  0.875 0.75 0.875  1 0.75 0.875  0 0.875 0.875  0.125 0.875 0.875  0.25 0.875 0.875  0.375 0.875 0.875  0.5 0.875 0.875  0.625 0.875 0.875  0.75 0.875 0.875  0.
[...]
<PointData  Vectors="f_25"> 
<DataArray  type="Float64"  Name="f_25"  NumberOfComponents="3" format="ascii">-6.7276527575273387e-02 -6.7276527575273387e-02 0.0000000000000000e+00  -6.7701455980848382e-02 -6.7642624917465283e-02 0.0000000000000000e+00  -6.6685582267597646e-02 -7.0685386323913524e-02 0.0000000000000000e+00  -6.3192636690187778e-02 -7.6082170256918352e-02 0.0000000000000000e+00  -5.6494409679643240e-02 -8.2916079354534072e-02 0.0000000000000000e+00  -4.6295468392827936e-02 -9.0041733160869705e-02 0.0000000000000000e+00  -3.2843228693388030e-02 -9.6233203261072764e-02 0.0000000000000000e+00  -1.6981656060559149e-02 -1.0032084125744953e-01 0.0000000000000000e+00  0.0000000000000000e+00 -1.0123651821152942e-01 0.0000000000000000e+00  -6.7642624917465269e-02 -6.7701455980848382e-02 0.0000000000000000e+00  -6.7196147020138153e-02 -6.7196147020138167e-02 0.0000000000000000e+00  -6.5242899753160277e-02 -7.0052486573053088e-02 0.0000000000000000e+00  -6.1019341486516304e-02 -7.5607938645654849e-02 0.0000000000000000e+00  -5.4005414488588067e-02 -8.2797772773864756e-02 0.0000000000000000e+00  -4.3961736148345261e-02 -9.0363592181222349e-02 0.0000000000000000e+00  -3.1071506218698201e-02 -9.6984822139142488e-02 0.0000000000000000e+00  -1.6032280616784113e-02 -1.0142715706333807e-01 0.0000000000000000e+00  0.0000000000000000e+00 -1.0272745014489466e-01 0.0000000000000000e+00  -7.0685386323913524e-02 -6.6685582267597660e-02 0.0000000000000000e+00  -7.0052486573053088e-02 -6.5242899753160291e-02 0.0000000000000000e+00  -6.7874085810192969e-02 -6.7874085810192983e-02 0.0000000000000000e+00  -6.3392306121680411e-02 -7.3500166888100502e-02 0.0000000000000000e+00  -5.6085647763214112e-02 -8.0944176676934196e-02 0.0000000000000000e+00  -4.5666517707036378e-02 -8.8897583352617590e-02 0.0000000000000000e+00  -3.2264645774457749e-02 -9.5964124129989462e-02 0.0000000000000000e+00  -1.6600697192502577e-02 -1.0080035944228904e-01 0.0000000000000000e+00  0.0000000000000000e+00 -1.0236886279649712e-01 0.0000000000000000e+00  -7.6082170256918352e-02 -6.3192636690187792e-02 0.0000000000000000e+00  -7.5607938645654849e-02 -6.1019341486516318e-02 0.0000000000000000e+00  -7.3500166888100502e-02 -6.3392306121680425e-02 0.0000000000000000e+00  -6.8998930219401261e-02 -6.8998930219401261e-02 0.0000000000000000e+00  -6.1448129861114677e-02 -7.6598792121448198e-02 0.0000000000000000e+00  -5.0372146655166608e-02 -8.4878147937729534e-02 0.0000000000000000e+00  -3.5772270775588581e-02 -9.2384387072553337e-02 0.0000000000000000e+00  -1.8438918784363673e-02 -9.7628370130192946e-02 0.0000000000000000e+00  0.0000000000000000e+00 -9.9403358595850075e-02 0.0000000000000000e+00  -8.2916079354534059e-02 -5.6494409679643268e-02 0.0000000000000000e+00  -8.2797772773864756e-02 -5.4005414488588081e-02 0.0000000000000000e+00  -8.0944176676934196e-02 -5.6085647763214112e-02 0.0000000000000000e+00  -7.6598792121448198e-02 -6.1448129861114670e-02 0.0000000000000000e+00  -6.8922162642975779e-02 -6.8922162642975779e-02 0.0000000000000000e+00  -5.7126167211403879e-02 -7.7265897935951372e-02 0.0000000000000000e+00  -4.0954414202715499e-02 -8.5026552769564570e-02 0.0000000000000000e+00  -2.1239885735831861e-02 -9.0588082415905713e-02 0.0000000000000000e+00  0.0000000000000000e+00 -9.2543295015056731e-02 0.0000000000000000e+00  -9.0041733160869705e-02 -4.6295468392827943e-02 0.0000000000000000e+00  -9.0363592181222349e-02 -4.3961736148345261e-02 0.0000000000000000e+00  -8.8897583352617590e-02 -4.5666517707036378e-02 0.0000000000000000e+00  -8.4878147937729520e-02 -5.0372146655166601e-02 0.0000000000000000e+00  -7.7265897935951372e-02 -5.7126167211403879e-02 0.0000000000000000e+00  -6.4884141114433455e-02 -6.4884141114433441e-02 0.0000000000000000e+00  -4.7071679014387316e-02 -7.2327580294453062e-02 0.0000000000000000e+00  -2.4624426068871105e-02 -7.7848272962547246e-02 0.0000000000000000e+00  0.0000000000000000e+00 -7.9898582394534276e-02 0.0000000000000000e+00  -9.6233203261072764e-02 -3.2843228693388037e-02 0.0000000000000000e+00  -9.6984822139142488e-02 -3.1071506218698201e-02 0.0000000000000000e+00  -9.5964124129989462e-02 -3.2264645774457756e-02 0.0000000000000000e+00  -9.2384387072553337e-02 -3.5772270775588574e-02 0.0000000000000000e+00  -8.5026552769564570e-02 -4.0954414202715506e-02 0.0000000000000000e+00  -7.2327580294453075e-02 -4.7071679014387309e-02 0.0000000000000000e+00  -5.3135119255400091e-02 -5.3135119255400085e-02 0.0000000000000000e+00  -2.8060226587845155e-02 -5.7823085317120396e-02 0.0000000000000000e+00  0.0000000000000000e+00 -5.9697131842789221e-02 0.0000000000000000e+00  -1.0032084125744953e-01 -1.6981656060559146e-02 0.0000000000000000e+00  -1.0142715706333807e-01 -1.6032280616784113e-02 0.0000000000000000e+00  -1.0080035944228904e-01 -1.6600697192502577e-02 0.0000000000000000e+00  -9.7628370130192946e-02 -1.8438918784363673e-02 0.0000000000000000e+00  -9.0588082415905713e-02 -2.1239885735831854e-02 0.0000000000000000e+00  -7.7848272962547246e-02 -2.4624426068871108e-02 0.0000000000000000e+00  -5.7823085317120396e-02 -2.8060226587845155e-02 0.0000000000000000e+00  -3.0841068048563194e-02 -3.0841068048563187e-02 0.0000000000000000e+00  0.0000000000000000e+00 -3.2044727376300035e-02 0.0000000000000000e+00  -1.0123651821152942e-01 0.0000000000000000e+00 0.0000000000000000e+00  -1.0272745014489466e-01 0.0000000000000000e+00 0.0000000000000000e+00  -1.0236886279649714e-01 0.0000000000000000e+00 0.0000000000000000e+00  -9.9403358595850075e-02 0.0000000000000000e+00 0.0000000000000000e+00  -9.2543295015056731e-02 0.0000000000000000e+00 0.0000000000000000e+00  -7.9898582394534276e-02 0.0000000000000000e+00 0.0000000000000000e+00  -5.9697131842789221e-02 0.0000000000000000e+00 0.0000000000000000e+00  -3.2044727376300035e-02 0.0000000000000000e+00 0.0000000000000000e+00  0.0000000000000000e+00 0.0000000000000000e+00 0.0000000000000000e+00  -6.4930394778073025e-02 -6.4930394778073039e-02 5.0985084855927195e-03  -6.5918159743499377e-02 -6.5076142948261417e-02 2.3654957268032552e-03  -6.5354711702729440e-02 -6.8033868563585093e-02 2.2620463835997518e-05  -6.2265983571852632e-02 -7.3330296953954557e-02 -2.1765383715765911e-03  -5.5938605611148398e-02 -8.0055436742077990e-02 -4.2338471362632297e-03  -4.6070068563837732e-02 -8.7092253182519605e-02 -6.0572207341923435e-03  -3.2880884719883395e-02 -9.3241548771287389e-02 -7.4950596202368880e-03  -1.7160332646121431e-02 -9.7353154055156613e-02 -8.3939127243263852e-03  0.0000000000000000e+00 -9.8276046117307919e-02 -8.6435914209675759e-03  -6.5076142948261390e-02 -6.5918159743499391e-02 2.3654957268032595e-03  -6.5449777389395419e-02 -6.5449777389395433e-02 -4.1837650622749897e-04  -6.3887442285663731e-02 -6.8223844056027924e-02 -2.8737434359800205e-03  -5.9965511855475620e-02 -7.3702975657085973e-02 -5.2514742459440766e-03  -5.3245887861938700e-02 -8.0830134469541862e-02 -7.5247529405736953e-03  -4.3502187564960479e-02 -8.8354235606626544e-02 -9.5662149106087516e-03  -3.0893224133612722e-02 -9.4964933218191910e-02 -1.1182154809014706e-02  -1.6054176684045643e-02 -9.9454523754124349e-02 -1.2171600467158959e-02  0.0000000000000000e+00 -1.0100015689407914e-01 -1.2383066035626989e-02  -6.8033868563585079e-02 -6.5354711702729454e-02 2.2620463836006496e-05  -6.8223844056027910e-02 -6.3887442285663745e-02 -2.8737434359800253e-03  -6.6464528515104385e-02 -6.6464528515104385e-02 -5.5503460868202275e-03  -6.2296549659614391e-02 -7.2041512800535348e-02 -8.2955696613609044e-03  -5.5296674785236664e-02 -7.9456551005396794e-02 -1.1038960705248388e-02  -4.5199041669621132e-02 -8.7404602526398034e-02 -1.3597489982909470e-02  -3.2105438680241898e-02 -9.4488862043084515e-02 -1.5681376202161239e-02  -1.6657075267995505e-02 -9.9385629355576127e-02 -1.6971142562137515e-02  0.0000000000000000e+00 -1.0119957439876588e-01 -1.7218221117215729e-02  -7.3330296953954544e-02 -6.2265983571852646e-02 -2.1765383715766006e-03  -7.3702975657085973e-02 -5.9965511855475627e-02 -5.2514742459440784e-03  -7.2041512800535348e-02 -6.2296549659614397e-02 -8.2955696613609096e-03  -6.7898377770096274e-02 -6.7898377770096288e-02 -1.1599192899772213e-02  -6.0705082811943166e-02 -7.5527052507157369e-02 -1.5068775083702463e-02  -5.0000186396976613e-02 -8.3866616083525650e-02 -1.8461257300421828e-02  -3.5740776670078724e-02 -9.1448711593131560e-02 -2.1339559591768004e-02  -1.8606270033308770e-02 -9.6779737890543435e-02 -2.3182462422696427e-02  0.0000000000000000e+00 -9.8753614185240202e-02 -2.3599953120389896e-02  -8.0055436742077990e-02 -5.5938605611148405e-02 -4.2338471362632340e-03  -8.0830134469541862e-02 -5.3245887861938700e-02 -7.5247529405736971e-03  -7.9456551005396794e-02 -5.5296674785236671e-02 -1.1038960705248393e-02  -7.5527052507157369e-02 -6.0705082811943173e-02 -1.5068775083702459e-02  -6.8286357824583699e-02 -6.8286357824583699e-02 -1.9510073986314734e-02  -5.6941838322500903e-02 -7.6791417009618973e-02 -2.4075633046240084e-02  -4.1157363118771849e-02 -8.4732698096731257e-02 -2.8134335847544444e-02  -2.1599032394014974e-02 -9.0449260290023356e-02 -3.0852114096209662e-02  0.0000000000000000e+00 -9.2571003976786567e-02 -3.1623906437265099e-02  -8.7092253182519605e-02 -4.6070068563837746e-02 -6.0572207341923505e-03  -8.8354235606626558e-02 -4.3502187564960479e-02 -9.5662149106087602e-03  -8.7404602526398034e-02 -4.5199041669621125e-02 -1.3597489982909475e-02  -8.3866616083525650e-02 -5.0000186396976606e-02 -1.8461257300421828e-02  -7.6791417009618973e-02 -5.6941838322500903e-02 -2.4075633046240077e-02  -6.4980228537793727e-02 -6.4980228537793713e-02 -3.0137511898469697e-02  -4.7631686582019307e-02 -7.2749984687643668e-02 -3.5777141061534033e-02  -2.5275296499063626e-02 -7.8551627580215222e-02 -3.9712680900830619e-02  0.0000000000000000e+00 -8.0819828162840668e-02 -4.1053449309898196e-02  -9.3241548771287389e-02 -3.2880884719883395e-02 -7.4950596202368889e-03  -9.4964933218191910e-02 -3.0893224133612729e-02 -1.1182154809014711e-02  -9.4488862043084515e-02 -3.2105438680241905e-02 -1.5681376202161236e-02  -9.1448711593131560e-02 -3.5740776670078717e-02 -2.1339559591768007e-02  -8.4732698096731271e-02 -4.1157363118771849e-02 -2.8134335847544448e-02  -7.2749984687643668e-02 -4.7631686582019307e-02 -3.5777141061534033e-02  -5.4141543286332229e-02 -5.4141543286332236e-02 -4.3200578367848318e-02  -2.9093793319672580e-02 -5.9250582883026759e-02 -4.8588927611677803e-02  0.0000000000000000e+00 -6.1486752875825279e-02 -5.0681288395911073e-02  -9.7353154055156613e-02 -1.7160332646121445e-02 -8.3939127243263956e-03  -9.9454523754124363e-02 -1.6054176684045646e-02 -1.2171600467158969e-02  -9.9385629355576127e-02 -1.6657075267995501e-02 -1.6971142562137519e-02  -9.6779737890543449e-02 -1.8606270033308774e-02 -2.3182462422696434e-02  -9.0449260290023356e-02 -2.1599032394014974e-02 -3.0852114096209665e-02  -7.8551627580215222e-02 -2.5275296499063630e-02 -3.9712680900830612e-02  -5.9250582883026759e-02 -2.9093793319672583e-02 -4.8588927611677803e-02  -3.2268684026785878e-02 -3.2268684026785871e-02 -5.5327471674971894e-02  0.0000000000000000e+00 -3.3881078645838142e-02 -5.8214957746093879e-02  -9.8276046117307919e-02 0.0000000000000000e+00 -8.6435914209675776e-03  -1.0100015689407914e-01 0.0000000000000000e+00 -1.2383066035626991e-02  -1.0119957439876590e-01 0.0000000000000000e+00 -1.7218221117215732e-02  -9.8753614185240202e-02 0.0000000000000000e+00 -2.3599953120389892e-02  -9.2571003976786581e-02 0.0000000000000000e+00 -3.1623906437265092e-02  -8.0819828162840668e-02 0.0000000000000000e+00 -4.1053449309898182e-02  -6.1486752875825286e-02 0.0000000000000000e+00 -5.0681288395911066e-02  -3.3881078645838142e-02 0.0000000000000000e+00 -5.8214957746093879e-02  0.0000000000000000e+00 0.0000000000000000e+00 -6.1993889426919746e-02  -6.0890333376750205e-02 -6.0890333376750226e-02 9.6314937133610556e-03  -6.1993388426714445e-02 -6.1133963272180562e-02 4.6163168050770498e-03  -6.1781813613110227e-02 -6.4055753191199286e-02 2.6885604641410647e-05  -5.9163347195276515e-02 -6.9295018548598986e-02 -4.2864085239288224e-03  -5.3403155041634093e-02 -7.5967403178969065e-02 -8.3153414474044177e-03  -4.4171594002304811e-02 -8.2980729866893241e-02 -1.1887807664804741e-02  -3.1650822171551782e-02 -8.9144461601211811e-02 -1.4716263714688694e-02  -1.6582808102262404e-02 -9.3313443500196228e-02 -1.6524059947351490e-02  0.0000000000000000e+00 -9.4343470967077181e-02 -1.7243681774042410e-02  -6.1133963272180555e-02 -6.1993388426714459e-02 4.6163168050770437e-03  -6.1618216363239955e-02 -6.1618216363239962e-02 -3.6613862459851593e-04  -6.0440982071334304e-02 -6.4391332893917963e-02 -5.1987420535214417e-03  -5.7000544293194087e-02 -6.9859309146806742e-02 -9.8846656381104524e-03  -5.0838491579075093e-02 -7.6989278257907676e-02 -1.4353962990307976e-02  -4.1703144501345678e-02 -8.4549537601236124e-02 -1.8370263953322676e-02  -2.9722040174634510e-02 -9.1225214157388254e-02 -2.1564752421103037e-02  -1.5497213533908942e-02 -9.5794878320307378e-02 -2.3555270288558510e-02  0.0000000000000000e+00 -9.7424547616065837e-02 -2.4060677606172205e-02  -6.4055753191199286e-02 -6.1781813613110241e-02 2.6885604641415242e-05  -6.4391332893917963e-02 -6.0440982071334304e-02 -5.1987420535214383e-03  -6.3107500321296653e-02 -6.3107500321296653e-02 -1.0527585859178437e-02  -5.9493193413342499e-02 -6.8770693073373884e-02 -1.5958117130687021e-02  -5.3100616513978009e-02 -7.6304850674165522e-02 -2.1372681372821410e-02  -4.3616426781203740e-02 -8.4416882747154642e-02 -2.6431221584573238e-02  -3.1103378586442319e-02 -9.1675279242173294e-02 -3.0568773435975225e-02  -1.6185806328818796e-02 -9.6708742491638397e-02 -3.3170574391096205e-02  0.0000000000000000e+00 -9.8617505820966650e-02 -3.3803286313997309e-02  -6.9295018548598986e-02 -5.9163347195276529e-02 -4.2864085239288242e-03  -6.9859309146806756e-02 -5.7000544293194087e-02 -9.8846656381104524e-03  -6.8770693073373884e-02 -5.9493193413342506e-02 -1.5958117130687018e-02  -6.5311748443221060e-02 -6.5311748443221074e-02 -2.2510678090567914e-02  -5.8845866723445377e-02 -7.3241444235893752e-02 -2.9394058817256409e-02  -4.8798345597095422e-02 -8.1960424797604903e-02 -3.6150679853138440e-02  -3.5054937909502315e-02 -8.9912076310489905e-02 -4.1901451220935075e-02  -1.8304718913039503e-02 -9.5484316000520264e-02 -4.5617979333245816e-02  0.0000000000000000e+00 -9.7533769300603798e-02 -4.6602156568324615e-02  -7.5967403178969065e-02 -5.3403155041634100e-02 -8.3153414474044229e-03  -7.6989278257907676e-02 -5.0838491579075093e-02 -1.4353962990307979e-02  -7.6304850674165522e-02 -5.3100616513978009e-02 -2.1372681372821410e-02  -7.3241444235893752e-02 -5.8845866723445377e-02 -2.9394058817256409e-02  -6.6931517426467801e-02 -6.6931517426467801e-02 -3.8272277981416691e-02  -5.6349670309954150e-02 -7.6087406542390476e-02 -4.7469446248188947e-02  -4.1001558353643983e-02 -8.4670634369398673e-02 -5.5668822797484363e-02  -2.1592707511342728e-02 -9.0798582518861679e-02 -6.1166916043529598e-02  0.0000000000000000e+00 -9.2994564383856379e-02 -6.2828072114951422e-02  -8.2980729866893241e-02 -4.4171594002304804e-02 -1.1887807664804751e-02  -8.4549537601236138e-02 -4.1703144501345678e-02 -1.8370263953322682e-02  -8.4416882747154642e-02 -4.3616426781203740e-02 -2.6431221584573235e-02  -8.1960424797604903e-02 -4.8798345597095422e-02 -3.6150679853138440e-02  -7.6087406542390476e-02 -5.6349670309954150e-02 -4.7469446248188947e-02  -6.5226127043724769e-02 -6.5226127043724769e-02 -5.9850109433133854e-02  -4.8244152506511838e-02 -7.3878413412493321e-02 -7.1412421270909937e-02  -2.5710740507488675e-02 -8.0295140044995703e-02 -7.9434632687252038e-02  0.0000000000000000e+00 -8.2718982239975841e-02 -8.2167227959689657e-02  -8.9144461601211811e-02 -3.1650822171551782e-02 -1.4716263714688696e-02  -9.1225214157388254e-02 -2.9722040174634517e-02 -2.1564752421103044e-02  -9.1675279242173308e-02 -3.1103378586442309e-02 -3.0568773435975218e-02  -8.9912076310489919e-02 -3.5054937909502308e-02 -4.1901451220935075e-02  -8.4670634369398673e-02 -4.1001558353643983e-02 -5.5668822797484370e-02  -7.3878413412493321e-02 -4.8244152506511838e-02 -7.1412421270909937e-02  -5.5644750018484020e-02 -5.5644750018484020e-02 -8.6824760672747817e-02  -3.0076287935873938e-02 -6.1465913865235540e-02 -9.7931352331933647e-02  0.0000000000000000e+00 -6.4003625391324592e-02 -1.0214681962554432e-01  -9.3313443500196228e-02 -1.6582808102262422e-02 -1.6524059947351493e-02  -9.5794878320307378e-02 -1.5497213533908942e-02 -2.3555270288558521e-02  -9.6708742491638397e-02 -1.6185806328818799e-02 -3.3170574391096219e-02  -9.5484316000520278e-02 -1.8304718913039503e-02 -4.5617979333245816e-02  -9.0798582518861679e-02 -2.1592707511342731e-02 -6.1166916043529598e-02  -8.0295140044995703e-02 -2.5710740507488679e-02 -7.9434632687252038e-02  -6.1465913865235540e-02 -3.0076287935873944e-02 -9.7931352331933647e-02  -3.3764814485907749e-02 -3.3764814485907749e-02 -1.1197525863349191e-01  0.0000000000000000e+00 -3.5706126542750662e-02 -1.1790218095441320e-01  -9.4343470967077195e-02 0.0000000000000000e+00 -1.7243681774042417e-02  -9.7424547616065851e-02 0.0000000000000000e+00 -2.4060677606172216e-02  -9.8617505820966650e-02 0.0000000000000000e+00 -3.3803286313997316e-02  -9.7533769300603812e-02 0.0000000000000000e+00 -4.6602156568324622e-02  -9.2994564383856379e-02 0.0000000000000000e+00 -6.2828072114951422e-02  -8.2718982239975841e-02 0.0000000000000000e+00 -8.2167227959689670e-02  -6.4003625391324592e-02 0.0000000000000000e+00 -1.0214681962554432e-01  -3.5706126542750669e-02 0.0000000000000000e+00 -1.1790218095441320e-01  0.0000000000000000e+00 0.0000000000000000e+00 -1.2596304641914352e-01  -5.4709877011051809e-02 -5.4709877011051830e-02 1.3822639008280960e-02  -5.5920049376155634e-02 -5.5080445429118934e-02 6.7701962142950019e-03  -5.5999346003780183e-02 -5.7993946083329487e-02 2.3378767106876596e-04  -5.3914039787605221e-02 -6.3118134210564517e-02 -5.9377484993302513e-03  -4.8918210607402521e-02 -6.9643462415240873e-02 -1.1700036629172584e-02  -4.0647752973318636e-02 -7.6536862362309110e-02 -1.6806956462735192e-02  -2.9235886974206038e-02 -8.2628323450022689e-02 -2.0852813798868355e-02  -1.5367682607335009e-02 -8.6781395476334955e-02 -2.3454698401180647e-02  0.0000000000000000e+00 -8.7862913308857982e-02 -2.4541630550373492e-02  -5.5080445429118927e-02 -5.5920049376155648e-02 6.7701962142950045e-03  -5.5710530250252570e-02 -5.5710530250252563e-02 -3.0358769365606848e-04  -5.4885645538950839e-02 -5.8527005594360589e-02 -7.2326069029647307e-03  -5.2035337440547030e-02 -6.3943858851201088e-02 -1.4004974272732595e-02  -4.6655827627026802e-02 -7.1003990179408311e-02 -2.0483503233408522e-02  -3.8449663133849600e-02 -7.8531906125368117e-02 -2.6321774613177817e-02  -2.7502043309592657e-02 -8.5214920225586507e-02 -3.0983973493353217e-02  -1.4376292993225225e-02 -8.9817165942616628e-02 -3.3927051591134072e-02  0.0000000000000000e+00 -9.1527344111995937e-02 -3.4774607427435440e-02  -5.7993946083329480e-02 -5.5999346003780197e-02 2.3378767106875208e-04  -5.8527005594360595e-02 -5.4885645538950839e-02 -7.2326069029647272e-03  -5.7675647074773753e-02 -5.7675647074773760e-02 -1.4905200040928091e-02  -5.4760544850753420e-02 -6.3412863036574188e-02 -2.2788790568153871e-02  -4.9237124266672913e-02 -7.1041758086402285e-02 -3.0686444289706630e-02  -4.0694875421740426e-02 -7.9309839092550447e-02 -3.8101250969581869e-02  -2.9143186779987257e-02 -8.6737348034931328e-02 -4.4187684271515898e-02  -1.5201581296975859e-02 -9.1880069056619787e-02 -4.8052410731058363e-02  0.0000000000000000e+00 -9.3837910009488573e-02 -4.9099814177197519e-02  -6.3118134210564517e-02 -5.3914039787605221e-02 -5.9377484993302530e-03  -6.3943858851201088e-02 -5.2035337440547037e-02 -1.4004974272732597e-02  -6.3412863036574188e-02 -5.4760544850753413e-02 -2.2788790568153871e-02  -6.0851868352783292e-02 -6.0851868352783292e-02 -3.2355928851342239e-02  -5.5452115324232859e-02 -6.9169608498913043