<?xml version="1.0"?>
<VTKFile type="UnstructuredGrid"  version="0.1"  >
<UnstructuredGrid>
<Piece  NumberOfPoints="729" NumberOfCells="3072">
<Points>
<DataArray  type="Float64"  NumberOfComponents="3"  format="ascii">0 0 0  0.125 0 0  0.25 0 0  0.375 0 0  0.5 0 0  0.625 0 0  0.75 0 0  0.875 0 0  1 0 0  0 0.125 0  0.125 0.125 0  0.25 0.125 0  0.375 0.125 0  0.5 0.125 0  0.625 0.125 0  0.75 0.125 0  0.875 0.125 0  1 0.125 0  0 0.25 0  0.125 0.25 0  0.25 0.25 0  0.375 0.25 0  0.5 0.25 0  0.625 0.25 0  0.75 0.25 0  0.875 0.25 0  1 0.25 0  0 0.375 0  0.125 0.375 0  0.25 0.375 0  0.375 0.375 0  0.5 0.375 0  0.625 0.375 0  0.75 0.375 0  0.875 0.375 0  1 0.375 0  0 0.5 0  0.125 0.5 0  0.25 0.5 0  0.375 0.5 0  0.5 0.5 0  0.625 0.5 0  0.75 0.5 0  0.875 0.5 0  1 0.5 0  0 0.625 0  0.125 0.625 0  0.25 0.625 0  0.375 0.625 0  0.5 0.625 0  0.625 0.625 0  0.75 0.625 0  0.875 0.625 0  1 0.625 0  0 0.75 0  0.125 0.75 0  0.25 0.75 0  0.375 0.75 0  0.5 0.75 0  0.625 0.75 0  0.75 0.75 0  0.875 0.75 0  1 0.75 0  0 0.875 0  0.125 0.875 0  0.25 0.875 0  0.375 0.875 0  0.5 0.875 0  0.625 0.875 0  0.75 0.875 0  0.875 0.875 0  1 0.875 0  0 1 0  0.125 1 0  0.25 1 0  0.375 1 0  0.5 1 0  0.625 1 0  0.75 1 0  0.875 1 0  1 1 0  0 0 0.125  0.125 0 0.125  0.25 0 0.125  0.375 0 0.125  0.5 0 0.125  0.625 0 0.125  0.75 0 0.125  0.875 0 0.125  1 0 0.125  0 0.125 0.125  0.125 0.125 0.125  0.25 0.125 0.125  0.375 0.125 0.125  0.5 0.125 0.125  0.625 0.125 0.125  0.75 0.125 0.125  0.875 0.125 0.125  1 0.125 0.125  0 0.25 0.125  0.125 0.25 0.125  0.25 0.25 0.125  0.375 0.25 0.125  0.5 0.25 0.125  0.625 0.25 0.125  0.75 0.25 0.125  0.875 0.25 0.125  1 0.25 0.125  0 0.375 0.125  0.125 0.375 0.125  0.25 0.375 0.125  0.375 0.375 0.125  0.5 0.375 0.125  0.625 0.375 0.125  0.75 0.375 0.125  0.875 0.375 0.125  1 0.375 0.125  0 0.5 0.125  0.125 0.5 0.125  0.25 0.5 0.125  0.375 0.5 0.125  0.5 0.5 0.125  0.625 0.5 0.125  0.75 0.5 0.125  0.875 0.5 0.125  1 0.5 0.125  0 0.625 0.125  0.125 0.625 0.125  0.25 0.625 0.125  0.375 0.625 0.125  0.5 0.625 0.125  0.625 0.625 0.125  0.75 0.625 0.125  0.875 0.625 0.125  1 0.625 0.125  0 0.75 0.125  0.125 0.75 0.125  0.25 0.75 0.125  0.375 0.75 0.125  0.5 0.75 0.125  0.625 0.75 0.125  0.75 0.75 0.125  0.875 0.75 0.125  1 0.75 0.125  0 0.875 0.125  0.125 0.875 0.125  0.25 0.875 0.125  0.375 0.875 0.125  0.5 0.875 0.125  0.625 0.875 0.125  0.75 0.875 0.125  0.875 0.875 0.125  1 0.875 0.125  0 1 0.125  0.125 1 0.125  0.25 1 0.125  0.375 1 0.125  0.5 1 0.125  0.625 1 0.125  0.75 1 0.125  0.875 1 0.125  1 1 0.125  0 0 0.25  0.125 0 0.25  0.25 0 0.25  0.375 0 0.25  0.5 0 0.25  0.625 0 0.25  0.75 0 0.25  0.875 0 0.25  1 0 0.25  0 0.125 0.25  0.125 0.125 0.25  0.25 0.125 0.25  0.375 0.125 0.25  0.5 0.125 0.25  0.625 0.125 0.25  0.75 0.125 0.25  0.875 0.125 0.25  1 0.125 0.25  0 0.25 0.25  0.125 0.25 0.25  0.25 0.25 0.25  0.375 0.25 0.25  0.5 0.25 0.25  0.625 0.25 0.25  0.75 0.25 0.25  0.875 0.25 0.25  1 0.25 0.25  0 0.375 0.25  0.125 0.375 0.25  0.25 0.375 0.25  0.375 0.375 0.25  0.5 0.375 0.25  0.625 0.375 0.25  0.75 0.375 0.25  0.875 0.375 0.25  1 0.375 0.25  0 0.5 0.25  0.125 0.5 0.25  0.25 0.5 0.25  0.375 0.5 0.25  0.5 0.5 0.25  0.625 0.5 0.25  0.75 0.5 0.25  0.875 0.5 0.25  1 0.5 0.25  0 0.625 0.25  0.125 0.625 0.25  0.25 0.625 0.25  0.375 0.625 0.25  0.5 0.625 0.25  0.625 0.625 0.25  0.75 0.625 0.25  0.875 0.625 0.25  1 0.625 0.25  0 0.75 0.25  0.125 0.75 0.25  0.25 0.75 0.25  0.375 0.75 0.25  0.5 0.75 0.25  0.625 0.75 0.25  0.75 0.75 0.25  0.875 0.75 0.25  1 0.75 0.25  0 0.875 0.25  0.125 0.875 0.25  0.25 0.875 0.25  0.375 0.875 0.25  0.5 0.875 0.25  0.625 0.875 0.25  0.75 0.875 0.25  0.875 0.875 0.25  1 0.875 0.25  0 1 0.25  0.125 1 0.25  0.25 1 0.25  0.375 1 0.25  0.5 1 0.25  0.625 1 0.25  0.75 1 0.25  0.875 1 0.25  1 1 0.25  0 0 0.375  0.125 0 0.375  0.25 0 0.375  0.375 0 0.375  0.5 0 0.375  0.625 0 0.375  0.75 0 0.375  0.875 0 0.375  1 0 0.375  0 0.125 0.375  0.125 0.125 0.375  0.25 0.125 0.375  0.375 0.125 0.375  0.5 0.125 0.375  0.625 0.125 0.375  0.75 0.125 0.375  0.875 0.125 0.375  1 0.125 0.375  0 0.25 0.375  0.125 0.25 0.375  0.25 0.25 0.375  0.375 0.25 0.375  0.5 0.25 0.375  0.625 0.25 0.375  0.75 0.25 0.375  0.875 0.25 0.375  1 0.25 0.375  0 0.375 0.375  0.125 0.375 0.375  0.25 0.375 0.375  0.375 0.375 0.375  0.5 0.375 0.375  0.625 0.375 0.375  0.75 0.375 0.375  0.875 0.375 0.375  1 0.375 0.375  0 0.5 0.375  0.125 0.5 0.375  0.25 0.5 0.375  0.375 0.5 0.375  0.5 0.5 0.375  0.625 0.5 0.375  0.75 0.5 0.375  0.875 0.5 0.375  1 0.5 0.375  0 0.625 0.375  0.125 0.625 0.375  0.25 0.625 0.375  0.375 0.625 0.375  0.5 0.625 0.375  0.625 0.625 0.375  0.75 0.625 0.375  0.875 0.625 0.375  1 0.625 0.375  0 0.75 0.375  0.125 0.75 0.375  0.25 0.75 0.375  0.375 0.75 0.375  0.5 0.75 0.375  0.625 0.75 0.375  0.75 0.75 0.375  0.875 0.75 0.375  1 0.75 0.375  0 0.875 0.375  0.125 0.875 0.375  0.25 0.875 0.375  0.375 0.875 0.375  0.5 0.875 0.375  0.625 0.875 0.375  0.75 0.875 0.375  0.875 0.875 0.375  1 0.875 0.375  0 1 0.375  0.125 1 0.375  0.25 1 0.375  0.375 1 0.375  0.5 1 0.375  0.625 1 0.375  0.75 1 0.375  0.875 1 0.375  1 1 0.375  0 0 0.5  0.125 0 0.5  0.25 0 0.5  0.375 0 0.5  0.5 0 0.5  0.625 0 0.5  0.75 0 0.5  0.875 0 0.5  1 0 0.5  0 0.125 0.5  0.125 0.125 0.5  0.25 0.125 0.5  0.375 0.125 0.5  0.5 0.125 0.5  0.625 0.125 0.5  0.75 0.125 0.5  0.875 0.125 0.5  1 0.125 0.5  0 0.25 0.5  0.125 0.25 0.5  0.25 0.25 0.5  0.375 0.25 0.5  0.5 0.25 0.5  0.625 0.25 0.5  0.75 0.25 0.5  0.875 0.25 0.5  1 0.25 0.5  0 0.375 0.5  0.125 0.375 0.5  0.25 0.375 0.5  0.375 0.375 0.5  0.5 0.375 0.5  0.625 0.375 0.5  0.75 0.375 0.5  0.875 0.375 0.5  1 0.375 0.5  0 0.5 0.5  0.125 0.5 0.5  0.25 0.5 0.5  0.375 0.5 0.5  0.5 0.5 0.5  0.625 0.5 0.5  0.75 0.5 0.5  0.875 0.5 0.5  1 0.5 0.5  0 0.625 0.5  0.125 0.625 0.5  0.25 0.625 0.5  0.375 0.625 0.5  0.5 0.625 0.5  0.625 0.625 0.5  0.75 0.625 0.5  0.875 0.625 0.5  1 0.625 0.5  0 0.75 0.5  0.125 0.75 0.5  0.25 0.75 0.5  0.375 0.75 0.5  0.5 0.75 0.5  0.625 0.75 0.5  0.75 0.75 0.5  0.875 0.75 0.5  1 0.75 0.5  0 0.875 0.5  0.125 0.875 0.5  0.25 0.875 0.5  0.375 0.875 0.5  0.5 0.875 0.5  0.625 0.875 0.5  0.75 0.875 0.5  0.875 0.875 0.5  1 0.875 0.5  0 1 0.5  0.125 1 0.5  0.25 1 0.5  0.375 1 0.5  0.5 1 0.5  0.625 1 0.5  0.75 1 0.5  0.875 1 0.5  1 1 0.5  0 0 0.625  0.125 0 0.625  0.25 0 0.625  0.375 0 0.625  0.5 0 0.625  0.625 0 0.625  0.75 0 0.625  0.875 0 0.625  1 0 0.625  0 0.125 0.625  0.125 0.125 0.625  0.25 0.125 0.625  0.375 0.125 0.625  0.5 0.125 0.625  0.625 0.125 0.625  0.75 0.125 0.625  0.875 0.125 0.625  1 0.125 0.625  0 0.25 0.625  0.125 0.25 0.625  0.25 0.25 0.625  0.375 0.25 0.625  0.5 0.25 0.625  0.625 0.25 0.625  0.75 0.25 0.625  0.875 0.25 0.625  1 0.25 0.625  0 0.375 0.625  0.125 0.375 0.625  0.25 0.375 0.625  0.375 0.375 0.625  0.5 0.375 0.625  0.625 0.375 0.625  0.75 0.375 0.625  0.875 0.375 0.625  1 0.375 0.625  0 0.5 0.625  0.125 0.5 0.625  0.25 0.5 0.625  0.375 0.5 0.625  0.5 0.5 0.625  0.625 0.5 0.625  0.75 0.5 0.625  0.875 0.5 0.625  1 0.5 0.625  0 0.625 0.625  0.125 0.625 0.625  0.25 0.625 0.625  0.375 0.625 0.625  0.5 0.625 0.625  0.625 0.625 0.625  0.75 0.625 0.625  0.875 0.625 0.625  1 0.625 0.625  0 0.75 0.625  0.125 0.75 0.625  0.25 0.75 0.625  0.375 0.75 0.625  0.5 0.75 0.625  0.625 0.75 0.625  0.75 0.75 0.625  0.875 0.75 0.625  1 0.75 0.625  0 0.875 0.625  0.125 0.875 0.625  0.25 0.875 0.625  0.375 0.875 0.625  0.5 0.875 0.625  0.625 0.875 0.625  0.75 0.875 0.625  0.875 0.875 0.625  1 0.875 0.625  0 1 0.625  0.125 1 0.625  0.25 1 0.625  0.375 1 0.625  0.5 1 0.625  0.625 1 0.625  0.75 1 0.625  0.875 1 0.625  1 1 0.625  0 0 0.75  0.125 0 0.75  0.25 0 0.75  0.375 0 0.75  0.5 0 0.75  0.625 0 0.75  0.75 0 0.75  0.875 0 0.75  1 0 0.75  0 0.125 0.75  0.125 0.125 0.75  0.25 0.125 0.75  0.375 0.125 0.75  0.5 0.125 0.75  0.625 0.125 0.75  0.75 0.125 0.75  0.875 0.125 0.75  1 0.125 0.75  0 0.25 0.75  0.125 0.25 0.75  0.25 0.25 0.75  0.375 0.25 0.75  0.5 0.25 0.75  0.625 0.25 0.75  0.75 0.25 0.75  0.875 0.25 0.75  1 0.25 0.75  0 0.375 0.75  0.125 0.375 0.75  0.25 0.375 0.75  0.375 0.375 0.75  0.5 0.375 0.75  0.625 0.375 0.75  0.75 0.375 0.75  0.875 0.375 0.75  1 0.375 0.75  0 0.5 0.75  0.125 0.5 0.75  0.25 0.5 0.75  0.375 0.5 0.75  0.5 0.5 0.75  0.625 0.5 0.75  0.75 0.5 0.75  0.875 0.5 0.75  1 0.5 0.75  0 0.625 0.75  0.125 0.625 0.75  0.25 0.625 0.75  0.375 0.625 0.75  0.5 0.625 0.75  0.625 0.625 0.75  0.75 0.625 0.75  0.875 0.625 0.75  1 0.625 0.75  0 0.75 0.75  0.125 0.75 0.75  0.25 0.75 0.75  0.375 0.75 0.75  0.5 0.75 0.75  0.625 0.75 0.75  0.75 0.75 0.75  0.875 0.75 0.75  1 0.75 0.75  0 0.875 0.75  0.125 0.875 0.75  0.25 0.875 0.75  0.375 0.875 0.75  0.5 0.875 0.75  0.625 0.875 0.75  0.75 0.875 0.75  0.875 0.875 0.75  1 0.875 0.75  0 1 0.75  0.125 1 0.75  0.25 1 0.75  0.375 1 0.75  0.5 1 0.75  0.625 1 0.75  0.75 1 0.75  0.875 1 0.75  1 1 0.75  0 0 0.875  0.125 0 0.875  0.25 0 0.875  0.375 0 0.875  0.5 0 0.875  0.625 0 0.875  0.75 0 0.875  0.875 0 0.875  1 0 0.875  0 0.125 0.875  0.125 0.125 0.875  0.25 0.125 0.875  0.375 0.125 0.875  0.5 0.125 0.875  0.625 0.125 0.875  0.75 0.125 0.875  0.875 0.125 0.875  1 0.125 0.875  0 0.25 0.875  0.125 0.25 0.875  0.25 0.25 0.875  0.375 0.25 0.875  0.5 0.25 0.875  0.625 0.25 0.875  0.75 0.25 0.875  0.875 0.25 0.875  1 0.25 0.875  0 0.375 0.875  0.125 0.375 0.875  0.25 0.375 0.875  0.375 0.375 0.875  0.5 0.375 0.875  0.625 0.375 0.875  0.75 0.375 0.875  0.875 0.375 0.875  1 0.375 0.875  0 0.5 0.875  0.125 0.5 0.875  0.25 0.5 0.875  0.375 0.5 0.875  0.5 0.5 0.875  0.625 0.5 0.875  0.75 0.5 0.875  0.875 0.5 0.875  1 0.5 0.875  0 0.625 0.875  0.125 0.625 0.875  0.25 0.625 0.875  0.375 0.625 0.875  0.5 0.625 0.875  0.625 0.625 0.875  0.75 0.625 0.875  0.875 0.625 0.875  1 0.625 0.875  0 0.75 0.875  0.125 0.75 0.875  0.25 0.75 0.875  0.375 0.75 0.875  0.5 0.75 0.875  0.625 0.75 0.875  0.75 0.75 0.875  0.875 0.75 0.875  1 0.75 0.875  0 0.875 0.875  0.125 0.875 0.875  0.25 0.875 0.875  0.375 0.875 0.875  0.5 0.875 0.875  0.625 0.875 0.875  0.75 0.875 0.875  0.
[...]
<PointData  Vectors="f_25"> 
<DataArray  type="Float64"  Name="f_25"  NumberOfComponents="3" format="ascii">-5.5084306604418661e-02 -5.5084306604418674e-02 0.0000000000000000e+00  -5.5270583297808359e-02 -5.5352087260132743e-02 0.0000000000000000e+00  -5.4285307054845064e-02 -5.7698577144485688e-02 0.0000000000000000e+00  -5.1300197942923301e-02 -6.1889472062497078e-02 0.0000000000000000e+00  -4.5744000917944845e-02 -6.7205955285082511e-02 0.0000000000000000e+00  -3.7399521933046728e-02 -7.2744090039175285e-02 0.0000000000000000e+00  -2.6482747190692140e-02 -7.7541253221554460e-02 0.0000000000000000e+00  -1.3675546600336949e-02 -8.0689282645255433e-02 0.0000000000000000e+00  0.0000000000000000e+00 -8.1372488511826588e-02 0.0000000000000000e+00  -5.5352087260132743e-02 -5.5270583297808359e-02 0.0000000000000000e+00  -5.4837119111617573e-02 -5.4837119111617566e-02 0.0000000000000000e+00  -5.3098504109724477e-02 -5.7005395141203272e-02 0.0000000000000000e+00  -4.9522045852160031e-02 -6.1280769768405748e-02 0.0000000000000000e+00  -4.3706400947020649e-02 -6.6834081574234414e-02 0.0000000000000000e+00  -3.5485552436248811e-02 -7.2678054076767293e-02 0.0000000000000000e+00  -2.5028099664050330e-02 -7.7780797483866543e-02 0.0000000000000000e+00  -1.2897118465739946e-02 -8.1189469880123807e-02 0.0000000000000000e+00  0.0000000000000000e+00 -8.2181654211591182e-02 0.0000000000000000e+00  -5.7698577144485681e-02 -5.4285307054845064e-02 0.0000000000000000e+00  -5.7005395141203258e-02 -5.3098504109724477e-02 0.0000000000000000e+00  -5.5061236913365563e-02 -5.5061236913365563e-02 0.0000000000000000e+00  -5.1253530202641798e-02 -5.9347465209415688e-02 0.0000000000000000e+00  -4.5187900503583726e-02 -6.5038766335316772e-02 0.0000000000000000e+00  -3.6672375179375750e-02 -7.1113316184486297e-02 0.0000000000000000e+00  -2.5842199936293751e-02 -7.6492132086954934e-02 0.0000000000000000e+00  -1.3277075737893633e-02 -8.0155966466269074e-02 0.0000000000000000e+00  0.0000000000000000e+00 -8.1345147924011194e-02 0.0000000000000000e+00  -6.1889472062497071e-02 -5.1300197942923301e-02 0.0000000000000000e+00  -6.1280769768405741e-02 -4.9522045852160038e-02 0.0000000000000000e+00  -5.9347465209415688e-02 -5.1253530202641798e-02 0.0000000000000000e+00  -5.5471587099627177e-02 -5.5471587099627177e-02 0.0000000000000000e+00  -4.9166480257152430e-02 -6.1201270922763749e-02 0.0000000000000000e+00  -4.0118150158582756e-02 -6.7419707570790383e-02 0.0000000000000000e+00  -2.8384605716792820e-02 -7.3021004910249723e-02 0.0000000000000000e+00  -1.4602924964452974e-02 -7.6904793831830076e-02 0.0000000000000000e+00  0.0000000000000000e+00 -7.8218371041335333e-02 0.0000000000000000e+00  -6.7205955285082511e-02 -4.5744000917944852e-02 0.0000000000000000e+00  -6.6834081574234427e-02 -4.3706400947020656e-02 0.0000000000000000e+00  -6.5038766335316772e-02 -4.5187900503583747e-02 0.0000000000000000e+00  -6.1201270922763742e-02 -4.9166480257152430e-02 0.0000000000000000e+00  -5.4707087320829045e-02 -5.4707087320829038e-02 0.0000000000000000e+00  -4.5040283559925773e-02 -6.0839605563086506e-02 0.0000000000000000e+00  -3.2108814764036889e-02 -6.6475020875649327e-02 0.0000000000000000e+00  -1.6602008720211545e-02 -7.0459038469117691e-02 0.0000000000000000e+00  0.0000000000000000e+00 -7.1846771234838055e-02 0.0000000000000000e+00  -7.2744090039175285e-02 -3.7399521933046721e-02 0.0000000000000000e+00  -7.2678054076767293e-02 -3.5485552436248811e-02 0.0000000000000000e+00  -7.1113316184486297e-02 -3.6672375179375750e-02 0.0000000000000000e+00  -6.7419707570790383e-02 -4.0118150158582763e-02 0.0000000000000000e+00  -6.0839605563086506e-02 -4.5040283559925766e-02 0.0000000000000000e+00  -5.0606396303438682e-02 -5.0606396303438675e-02 0.0000000000000000e+00  -3.6402626540880917e-02 -5.5835393868563475e-02 0.0000000000000000e+00  -1.8945956482791373e-02 -5.9620603860127394e-02 0.0000000000000000e+00  0.0000000000000000e+00 -6.0991167797242569e-02 0.0000000000000000e+00  -7.7541253221554460e-02 -2.6482747190692126e-02 0.0000000000000000e+00  -7.7780797483866543e-02 -2.5028099664050320e-02 0.0000000000000000e+00  -7.6492132086954934e-02 -2.5842199936293747e-02 0.0000000000000000e+00  -7.3021004910249723e-02 -2.8384605716792830e-02 0.0000000000000000e+00  -6.6475020875649327e-02 -3.2108814764036889e-02 0.0000000000000000e+00  -5.5835393868563475e-02 -3.6402626540880917e-02 0.0000000000000000e+00  -4.0518058423571209e-02 -4.0518058423571215e-02 0.0000000000000000e+00  -2.1217959993650670e-02 -4.3572760704424660e-02 0.0000000000000000e+00  0.0000000000000000e+00 -4.4737343328076544e-02 0.0000000000000000e+00  -8.0689282645255447e-02 -1.3675546600336947e-02 0.0000000000000000e+00  -8.1189469880123821e-02 -1.2897118465739939e-02 0.0000000000000000e+00  -8.0155966466269088e-02 -1.3277075737893631e-02 0.0000000000000000e+00  -7.6904793831830076e-02 -1.4602924964452970e-02 0.0000000000000000e+00  -7.0459038469117691e-02 -1.6602008720211541e-02 0.0000000000000000e+00  -5.9620603860127401e-02 -1.8945956482791369e-02 0.0000000000000000e+00  -4.3572760704424666e-02 -2.1217959993650663e-02 0.0000000000000000e+00  -2.2951225949164777e-02 -2.2951225949164773e-02 0.0000000000000000e+00  0.0000000000000000e+00 -2.3648399508129560e-02 0.0000000000000000e+00  -8.1372488511826602e-02 0.0000000000000000e+00 0.0000000000000000e+00  -8.2181654211591196e-02 0.0000000000000000e+00 0.0000000000000000e+00  -8.1345147924011194e-02 0.0000000000000000e+00 0.0000000000000000e+00  -7.8218371041335319e-02 0.0000000000000000e+00 0.0000000000000000e+00  -7.1846771234838055e-02 0.0000000000000000e+00 0.0000000000000000e+00  -6.0991167797242563e-02 0.0000000000000000e+00 0.0000000000000000e+00  -4.4737343328076551e-02 0.0000000000000000e+00 0.0000000000000000e+00  -2.3648399508129560e-02 0.0000000000000000e+00 0.0000000000000000e+00  0.0000000000000000e+00 0.0000000000000000e+00 0.0000000000000000e+00  -5.3220613688158856e-02 -5.3220613688158849e-02 3.6032496880912456e-03  -5.3866791660608773e-02 -5.3312586866202730e-02 1.3940693241204945e-03  -5.3254748955813627e-02 -5.5603505121756505e-02 -5.6433139683764342e-04  -5.0604604045252910e-02 -5.9736445494476445e-02 -2.4447555262696514e-03  -4.5353142398955375e-02 -6.4993979303897831e-02 -4.2266043521171776e-03  -3.7273573865432785e-02 -7.0490436504350273e-02 -5.8175550125615970e-03  -2.6557723854854002e-02 -7.5279576099638701e-02 -7.0799944242220464e-03  -1.3843594399896872e-02 -7.8461366931379256e-02 -7.8768239296633236e-03  0.0000000000000000e+00 -7.9141166734319729e-02 -8.1079018521076317e-03  -5.3312586866202730e-02 -5.3866791660608766e-02 1.3940693241204923e-03  -5.3459977305105606e-02 -5.3459977305105606e-02 -8.3813829734725792e-04  -5.2044513183766301e-02 -5.5570874357202794e-02 -2.8684892580160670e-03  -4.8719509338312095e-02 -5.9801280699444688e-02 -4.8705715193886603e-03  -4.3145452387809924e-02 -6.5325360745695227e-02 -6.8021905147227007e-03  -3.5164059133052199e-02 -7.1158568673911751e-02 -8.5451767746882595e-03  -2.4923152508696252e-02 -7.6272714618515952e-02 -9.9308018878485164e-03  -1.2936377004651516e-02 -7.9727807362160841e-02 -1.0785353573087190e-02  0.0000000000000000e+00 -8.0891205289509507e-02 -1.0974642698529373e-02  -5.5603505121756498e-02 -5.3254748955813620e-02 -5.6433139683764798e-04  -5.5570874357202787e-02 -5.2044513183766294e-02 -2.8684892580160717e-03  -5.3972548390331429e-02 -5.3972548390331422e-02 -5.0742194808397574e-03  -5.0426179768246593e-02 -5.8236708896900573e-02 -7.3722889991229565e-03  -4.4611223841055606e-02 -6.3927187582032918e-02 -9.6817398829160978e-03  -3.6349966639820736e-02 -7.0021719599407423e-02 -1.1839257418397069e-02  -2.5754159948749411e-02 -7.5436603027295296e-02 -1.3600785311353749e-02  -1.3341712541691208e-02 -7.9159717674069818e-02 -1.4699216369641867e-02  0.0000000000000000e+00 -8.0522187697669209e-02 -1.4925660224699716e-02  -5.9736445494476452e-02 -5.0604604045252910e-02 -2.4447555262696432e-03  -5.9801280699444688e-02 -4.8719509338312102e-02 -4.8705715193886664e-03  -5.8236708896900559e-02 -5.0426179768246586e-02 -7.3722889991229609e-03  -5.4658245778355007e-02 -5.4658245778355014e-02 -1.0124113499658111e-02  -4.8642803609737315e-02 -6.0433720123690998e-02 -1.3018874362191958e-02  -3.9884048767302567e-02 -6.6724860460034147e-02 -1.5842980584198346e-02  -2.8403778100843182e-02 -7.2410132757445803e-02 -1.8238769396030259e-02  -1.4754344756254268e-02 -7.6377821982265365e-02 -1.9783769576544624e-02  0.0000000000000000e+00 -7.7832058037038868e-02 -2.0161217005239589e-02  -6.4993979303897831e-02 -4.5353142398955396e-02 -4.2266043521171828e-03  -6.5325360745695241e-02 -4.3145452387809931e-02 -6.8021905147227033e-03  -6.3927187582032918e-02 -4.4611223841055619e-02 -9.6817398829161065e-03  -6.0433720123690991e-02 -4.8642803609737321e-02 -1.3018874362191964e-02  -5.4288017677917522e-02 -5.4288017677917522e-02 -1.6685857192835159e-02  -4.4966511360095308e-02 -6.0567640494505644e-02 -2.0427723998241529e-02  -3.2314905354593575e-02 -6.6364627818072536e-02 -2.3740379560117639e-02  -1.6898428033998131e-02 -7.0485291440865169e-02 -2.5968401840776336e-02  0.0000000000000000e+00 -7.1992399175334620e-02 -2.6639571135615509e-02  -7.0490436504350273e-02 -3.7273573865432785e-02 -5.8175550125615962e-03  -7.1158568673911751e-02 -3.5164059133052199e-02 -8.5451767746882630e-03  -7.0021719599407423e-02 -3.6349966639820749e-02 -1.1839257418397069e-02  -6.6724860460034147e-02 -3.9884048767302560e-02 -1.5842980584198342e-02  -6.0567640494505644e-02 -4.4966511360095301e-02 -2.0427723998241526e-02  -5.0758984482699769e-02 -5.0758984482699769e-02 -2.5310158093143555e-02  -3.6877122940911264e-02 -5.6245095535288135e-02 -2.9806486690647817e-02  -1.9451033646467452e-02 -6.0251305927463195e-02 -3.2940103430767101e-02  0.0000000000000000e+00 -6.1776725646419922e-02 -3.4047530138885604e-02  -7.5279576099638701e-02 -2.6557723854854002e-02 -7.0799944242220473e-03  -7.6272714618515952e-02 -2.4923152508696259e-02 -9.9308018878485199e-03  -7.5436603027295296e-02 -2.5754159948749415e-02 -1.3600785311353751e-02  -7.2410132757445803e-02 -2.8403778100843182e-02 -1.8238769396030263e-02  -6.6364627818072536e-02 -3.2314905354593568e-02 -2.3740379560117642e-02  -5.6245095535288135e-02 -3.6877122940911271e-02 -2.9806486690647813e-02  -4.1313374996618912e-02 -4.1313374996618919e-02 -3.5588251635670920e-02  -2.1980338283571915e-02 -4.4664646858628795e-02 -3.9733396459590536e-02  0.0000000000000000e+00 -4.6070055252063452e-02 -4.1351447581718929e-02  -7.8461366931379256e-02 -1.3843594399896880e-02 -7.8768239296633305e-03  -7.9727807362160855e-02 -1.2936377004651506e-02 -1.0785353573087186e-02  -7.9159717674069818e-02 -1.3341712541691201e-02 -1.4699216369641867e-02  -7.6377821982265365e-02 -1.4754344756254274e-02 -1.9783769576544628e-02  -7.0485291440865155e-02 -1.6898428033998134e-02 -2.5968401840776340e-02  -6.0251305927463195e-02 -1.9451033646467459e-02 -3.2940103430767094e-02  -4.4664646858628795e-02 -2.1980338283571915e-02 -3.9733396459590530e-02  -2.3962192820495647e-02 -2.3962192820495644e-02 -4.4728467093293915e-02  0.0000000000000000e+00 -2.4905857379806461e-02 -4.6800542457375707e-02  -7.9141166734319729e-02 0.0000000000000000e+00 -8.1079018521076213e-03  -8.0891205289509521e-02 0.0000000000000000e+00 -1.0974642698529371e-02  -8.0522187697669209e-02 0.0000000000000000e+00 -1.4925660224699716e-02  -7.7832058037038868e-02 0.0000000000000000e+00 -2.0161217005239589e-02  -7.1992399175334620e-02 0.0000000000000000e+00 -2.6639571135615509e-02  -6.1776725646419915e-02 0.0000000000000000e+00 -3.4047530138885597e-02  -4.6070055252063445e-02 0.0000000000000000e+00 -4.1351447581718929e-02  -2.4905857379806457e-02 0.0000000000000000e+00 -4.6800542457375714e-02  0.0000000000000000e+00 0.0000000000000000e+00 -4.9364292432614511e-02  -5.0059815347614792e-02 -5.0059815347614792e-02 6.8622484235173250e-03  -5.0821835654073527e-02 -5.0230026002475302e-02 2.7864228179873838e-03  -5.0512210620741856e-02 -5.2524006756638916e-02 -1.0532310802954050e-03  -4.8253131503206655e-02 -5.6663807724325187e-02 -4.7386542273376532e-03  -4.3459164194484055e-02 -6.1942877141634864e-02 -8.2246752912204912e-03  -3.5877014595883126e-02 -6.7486423463935588e-02 -1.1339132155265622e-02  -2.5666050189546992e-02 -7.2345197743059614e-02 -1.3820811945516003e-02  -1.3430253564994530e-02 -7.5611682587130621e-02 -1.5422018530079936e-02  0.0000000000000000e+00 -7.6386161841914144e-02 -1.6075787300376971e-02  -5.0230026002475295e-02 -5.0821835654073520e-02 2.7864228179873907e-03  -5.0482057074302027e-02 -5.0482057074302020e-02 -1.2252977986160808e-03  -4.9387211926036935e-02 -5.2623744222395151e-02 -5.2284394080292541e-03  -4.6456301487119371e-02 -5.6900867842208117e-02 -9.1777663240805770e-03  -4.1329587276102420e-02 -6.2495611959125549e-02 -1.2979653189128700e-02  -3.3823992953402021e-02 -6.8428789414189728e-02 -1.6413674381795595e-02  -2.4060374311411524e-02 -7.3657646209470337e-02 -1.9156944488025990e-02  -1.2529090555706555e-02 -7.7218420017491185e-02 -2.0877686220714842e-02  0.0000000000000000e+00 -7.8459708713818174e-02 -2.1328545342475171e-02  -5.2524006756638923e-02 -5.0512210620741849e-02 -1.0532310802954011e-03  -5.2623744222395158e-02 -4.9387211926036935e-02 -5.2284394080292524e-03  -5.1416163842508897e-02 -5.1416163842508904e-02 -9.6287928307368185e-03  -4.8318731989763650e-02 -5.5804164782895863e-02 -1.4182972737779832e-02  -4.2987169722960100e-02 -6.1657959064889675e-02 -1.8750811388857345e-02  -3.5201194775624015e-02 -6.7954673752437744e-02 -2.3026794581506277e-02  -2.5038751948646087e-02 -7.3572160637600262e-02 -2.6532435964813753e-02  -1.3007923159254101e-02 -7.7446488152510581e-02 -2.8749453678443823e-02  0.0000000000000000e+00 -7.8893039573553758e-02 -2.9308244321848947e-02  -5.6663807724325187e-02 -4.8253131503206648e-02 -4.7386542273376549e-03  -5.6900867842208123e-02 -4.6456301487119364e-02 -9.1777663240805822e-03  -5.5804164782895856e-02 -4.8318731989763650e-02 -1.4182972737779834e-02  -5.2774677423131515e-02 -5.2774677423131529e-02 -1.9656875351249430e-02  -4.7330415554078784e-02 -5.8851668404069538e-02 -2.5418710090112016e-02  -3.9072687138521044e-02 -6.5508693697355666e-02 -3.1063759912765877e-02  -2.7964374140885061e-02 -7.1546711866124615e-02 -3.5869219110306570e-02  -1.4567909380079840e-02 -7.5747400941449147e-02 -3.8993298244998482e-02  0.0000000000000000e+00 -7.7271126367721668e-02 -3.9857540899698833e-02  -6.1942877141634864e-02 -4.3459164194484048e-02 -8.2246752912204981e-03  -6.2495611959125542e-02 -4.1329587276102427e-02 -1.2979653189128698e-02  -6.1657959064889675e-02 -4.2987169722960107e-02 -1.8750811388857348e-02  -5.8851668404069531e-02 -4.7330415554078790e-02 -2.5418710090112016e-02  -5.3422012199246492e-02 -5.3422012199246492e-02 -3.2778502204823222e-02  -4.4666164040204383e-02 -6.0258304378255620e-02 -4.0348112764844506e-02  -3.2311137914442442e-02 -6.6600518740081327e-02 -4.7073694175547881e-02  -1.6954554280924430e-02 -7.1076227902928432e-02 -5.1604375223360831e-02  0.0000000000000000e+00 -7.2652339405054056e-02 -5.3034365624603313e-02  -6.7486423463935574e-02 -3.5877014595883133e-02 -1.1339132155265623e-02  -6.8428789414189728e-02 -3.3823992953402028e-02 -1.6413674381795595e-02  -6.7954673752437758e-02 -3.5201194775624021e-02 -2.3026794581506277e-02  -6.5508693697355666e-02 -3.9072687138521044e-02 -3.1063759912765880e-02  -6.0258304378255613e-02 -4.4666164040204390e-02 -4.0348112764844506e-02  -5.1127169584547036e-02 -5.1127169584547050e-02 -5.0361465530966418e-02  -3.7465034929077226e-02 -5.7302605371772203e-02 -5.9626740482466883e-02  -1.9845509879692053e-02 -6.1788803658082980e-02 -6.6057167697726557e-02  0.0000000000000000e+00 -6.3436791149780083e-02 -6.8324785873434810e-02  -7.2345197743059614e-02 -2.5666050189546999e-02 -1.3820811945516006e-02  -7.3657646209470337e-02 -2.4060374311411538e-02 -1.9156944488025986e-02  -7.3572160637600262e-02 -2.5038751948646087e-02 -2.6532435964813757e-02  -7.1546711866124629e-02 -2.7964374140885064e-02 -3.5869219110306570e-02  -6.6600518740081327e-02 -3.2311137914442456e-02 -4.7073694175547888e-02  -5.7302605371772196e-02 -3.7465034929077233e-02 -5.9626740482466876e-02  -4.2552662430823993e-02 -4.2552662430824006e-02 -7.1689590045129162e-02  -2.2762275673521411e-02 -4.6407412032150201e-02 -8.0291289989353379e-02  0.0000000000000000e+00 -4.8018472291437506e-02 -8.3587363532229744e-02  -7.5611682587130621e-02 -1.3430253564994537e-02 -1.5422018530079925e-02  -7.7218420017491185e-02 -1.2529090555706562e-02 -2.0877686220714835e-02  -7.7446488152510595e-02 -1.3007923159254101e-02 -2.8749453678443823e-02  -7.5747400941449147e-02 -1.4567909380079852e-02 -3.8993298244998482e-02  -7.1076227902928432e-02 -1.6954554280924433e-02 -5.1604375223360831e-02  -6.1788803658082980e-02 -1.9845509879692049e-02 -6.6057167697726543e-02  -4.6407412032150194e-02 -2.2762275673521404e-02 -8.0291289989353379e-02  -2.5077282108245228e-02 -2.5077282108245225e-02 -9.0758879851814522e-02  0.0000000000000000e+00 -2.6220027880444759e-02 -9.5056020327580634e-02  -7.6386161841914144e-02 0.0000000000000000e+00 -1.6075787300376943e-02  -7.8459708713818188e-02 0.0000000000000000e+00 -2.1328545342475160e-02  -7.8893039573553772e-02 0.0000000000000000e+00 -2.9308244321848937e-02  -7.7271126367721682e-02 0.0000000000000000e+00 -3.9857540899698826e-02  -7.2652339405054070e-02 0.0000000000000000e+00 -5.3034365624603320e-02  -6.3436791149780070e-02 0.0000000000000000e+00 -6.8324785873434810e-02  -4.8018472291437499e-02 0.0000000000000000e+00 -8.3587363532229758e-02  -2.6220027880444752e-02 0.0000000000000000e+00 -9.5056020327580634e-02  0.0000000000000000e+00 0.0000000000000000e+00 -1.0056237873632858e-01  -4.5195308918761258e-02 -4.5195308918761251e-02 1.0031518207888680e-02  -4.6078221147210184e-02 -4.5466428727099439e-02 4.2628727107667580e-03  -4.6032965975174860e-02 -4.7799602925828646e-02 -1.2155393267048820e-03  -4.4223339389895061e-02 -5.1923100200865858e-02 -6.4846120859690399e-03  -4.0048774543412907e-02 -5.7177427911750893e-02 -1.1462530178267920e-02  -3.3222092923750744e-02 -6.2723299182661243e-02 -1.5907814004010448e-02  -2.3860664291590766e-02 -6.7614568872550185e-02 -1.9452823653332157e-02  -1.2527172315516430e-02 -7.0934846855757391e-02 -2.1754739297393792e-02  0.0000000000000000e+00 -7.1775094798981795e-02 -2.2745097608509731e-02  -4.5466428727099432e-02 -4.6078221147210184e-02 4.2628727107667614e-03  -4.5861743903121824e-02 -4.5861743903121824e-02 -1.4737545043384404e-03  -4.5069015781085298e-02 -4.8086555070767215e-02 -7.2318394725895433e-03  -4.2624843187173689e-02 -5.2407197258663725e-02 -1.2946596835209762e-02  -3.8128468980530399e-02 -5.8050272060716328e-02 -1.8461100882063597e-02  -3.1353884269041662e-02 -6.4067291713992183e-02 -2.3455715577212516e-02  -2.2384904507887639e-02 -6.9401820074329990e-02 -2.7460667354080200e-02  -1.1684969584575161e-02 -7.3060530828879047e-02 -3.0001918587807437e-02  0.0000000000000000e+00 -7.4396625673093672e-02 -3.0746562674993795e-02  -4.7799602925828633e-02 -4.6032965975174860e-02 -1.2155393267048841e-03  -4.8086555070767222e-02 -4.5069015781085291e-02 -7.2318394725895442e-03  -4.7246245801177179e-02 -4.7246245801177172e-02 -1.3595045694531486e-02  -4.4722315504719196e-02 -5.1783285722295180e-02 -2.0226290328657380e-02  -4.0087523317377256e-02 -5.7824887430060680e-02 -2.6907981202279958e-02  -3.3036489966530663e-02 -6.4365274547717524e-02 -3.3194662397055229e-02  -2.3599836557162104e-02 -7.0226929398990959e-02 -3.8366712702742778e-02  -1.2286663766809810e-02 -7.4265780646167984e-02 -4.1662940287925394e-02  0.0000000000000000e+00 -7.5779528633936943e-02 -4.2568400720845230e-02  -5.1923100200865852e-02 -4.4223339389895054e-02 -6.4846120859690295e-03  -5.2407197258663725e-02 -4.2624843187173696e-02 -1.2946596835209753e-02  -5.1783285722295187e-02 -4.4722315504719216e-02 -2.0226290328657387e-02  -4.9486210041639618e-02 -4.9486210041639618e-02 -2.8256585536469453e-02  -4.4888270207831246e-02 -5.5982813515