<?xml version="1.0"?>
<VTKFile type="UnstructuredGrid"  version="0.1"  >
<UnstructuredGrid>
<Piece  NumberOfPoints="729" NumberOfCells="3072">
<Points>
<DataArray  type="Float64"  NumberOfComponents="3"  format="ascii">0 0 0  0.125 0 0  0.25 0 0  0.375 0 0  0.5 0 0  0.625 0 0  0.75 0 0  0.875 0 0  1 0 0  0 0.125 0  0.125 0.125 0  0.25 0.125 0  0.375 0.125 0  0.5 0.125 0  0.625 0.125 0  0.75 0.125 0  0.875 0.125 0  1 0.125 0  0 0.25 0  0.125 0.25 0  0.25 0.25 0  0.375 0.25 0  0.5 0.25 0  0.625 0.25 0  0.75 0.25 0  0.875 0.25 0  1 0.25 0  0 0.375 0  0.125 0.375 0  0.25 0.375 0  0.375 0.375 0  0.5 0.375 0  0.625 0.375 0  0.75 0.375 0  0.875 0.375 0  1 0.375 0  0 0.5 0  0.125 0.5 0  0.25 0.5 0  0.375 0.5 0  0.5 0.5 0  0.625 0.5 0  0.75 0.5 0  0.875 0.5 0  1 0.5 0  0 0.625 0  0.125 0.625 0  0.25 0.625 0  0.375 0.625 0  0.5 0.625 0  0.625 0.625 0  0.75 0.625 0  0.875 0.625 0  1 0.625 0  0 0.75 0  0.125 0.75 0  0.25 0.75 0  0.375 0.75 0  0.5 0.75 0  0.625 0.75 0  0.75 0.75 0  0.875 0.75 0  1 0.75 0  0 0.875 0  0.125 0.875 0  0.25 0.875 0  0.375 0.875 0  0.5 0.875 0  0.625 0.875 0  0.75 0.875 0  0.875 0.875 0  1 0.875 0  0 1 0  0.125 1 0  0.25 1 0  0.375 1 0  0.5 1 0  0.625 1 0  0.75 1 0  0.875 1 0  1 1 0  0 0 0.125  0.125 0 0.125  0.25 0 0.125  0.375 0 0.125  0.5 0 0.125  0.625 0 0.125  0.75 0 0.125  0.875 0 0.125  1 0 0.125  0 0.125 0.125  0.125 0.125 0.125  0.25 0.125 0.125  0.375 0.125 0.125  0.5 0.125 0.125  0.625 0.125 0.125  0.75 0.125 0.125  0.875 0.125 0.125  1 0.125 0.125  0 0.25 0.125  0.125 0.25 0.125  0.25 0.25 0.125  0.375 0.25 0.125  0.5 0.25 0.125  0.625 0.25 0.125  0.75 0.25 0.125  0.875 0.25 0.125  1 0.25 0.125  0 0.375 0.125  0.125 0.375 0.125  0.25 0.375 0.125  0.375 0.375 0.125  0.5 0.375 0.125  0.625 0.375 0.125  0.75 0.375 0.125  0.875 0.375 0.125  1 0.375 0.125  0 0.5 0.125  0.125 0.5 0.125  0.25 0.5 0.125  0.375 0.5 0.125  0.5 0.5 0.125  0.625 0.5 0.125  0.75 0.5 0.125  0.875 0.5 0.125  1 0.5 0.125  0 0.625 0.125  0.125 0.625 0.125  0.25 0.625 0.125  0.375 0.625 0.125  0.5 0.625 0.125  0.625 0.625 0.125  0.75 0.625 0.125  0.875 0.625 0.125  1 0.625 0.125  0 0.75 0.125  0.125 0.75 0.125  0.25 0.75 0.125  0.375 0.75 0.125  0.5 0.75 0.125  0.625 0.75 0.125  0.75 0.75 0.125  0.875 0.75 0.125  1 0.75 0.125  0 0.875 0.125  0.125 0.875 0.125  0.25 0.875 0.125  0.375 0.875 0.125  0.5 0.875 0.125  0.625 0.875 0.125  0.75 0.875 0.125  0.875 0.875 0.125  1 0.875 0.125  0 1 0.125  0.125 1 0.125  0.25 1 0.125  0.375 1 0.125  0.5 1 0.125  0.625 1 0.125  0.75 1 0.125  0.875 1 0.125  1 1 0.125  0 0 0.25  0.125 0 0.25  0.25 0 0.25  0.375 0 0.25  0.5 0 0.25  0.625 0 0.25  0.75 0 0.25  0.875 0 0.25  1 0 0.25  0 0.125 0.25  0.125 0.125 0.25  0.25 0.125 0.25  0.375 0.125 0.25  0.5 0.125 0.25  0.625 0.125 0.25  0.75 0.125 0.25  0.875 0.125 0.25  1 0.125 0.25  0 0.25 0.25  0.125 0.25 0.25  0.25 0.25 0.25  0.375 0.25 0.25  0.5 0.25 0.25  0.625 0.25 0.25  0.75 0.25 0.25  0.875 0.25 0.25  1 0.25 0.25  0 0.375 0.25  0.125 0.375 0.25  0.25 0.375 0.25  0.375 0.375 0.25  0.5 0.375 0.25  0.625 0.375 0.25  0.75 0.375 0.25  0.875 0.375 0.25  1 0.375 0.25  0 0.5 0.25  0.125 0.5 0.25  0.25 0.5 0.25  0.375 0.5 0.25  0.5 0.5 0.25  0.625 0.5 0.25  0.75 0.5 0.25  0.875 0.5 0.25  1 0.5 0.25  0 0.625 0.25  0.125 0.625 0.25  0.25 0.625 0.25  0.375 0.625 0.25  0.5 0.625 0.25  0.625 0.625 0.25  0.75 0.625 0.25  0.875 0.625 0.25  1 0.625 0.25  0 0.75 0.25  0.125 0.75 0.25  0.25 0.75 0.25  0.375 0.75 0.25  0.5 0.75 0.25  0.625 0.75 0.25  0.75 0.75 0.25  0.875 0.75 0.25  1 0.75 0.25  0 0.875 0.25  0.125 0.875 0.25  0.25 0.875 0.25  0.375 0.875 0.25  0.5 0.875 0.25  0.625 0.875 0.25  0.75 0.875 0.25  0.875 0.875 0.25  1 0.875 0.25  0 1 0.25  0.125 1 0.25  0.25 1 0.25  0.375 1 0.25  0.5 1 0.25  0.625 1 0.25  0.75 1 0.25  0.875 1 0.25  1 1 0.25  0 0 0.375  0.125 0 0.375  0.25 0 0.375  0.375 0 0.375  0.5 0 0.375  0.625 0 0.375  0.75 0 0.375  0.875 0 0.375  1 0 0.375  0 0.125 0.375  0.125 0.125 0.375  0.25 0.125 0.375  0.375 0.125 0.375  0.5 0.125 0.375  0.625 0.125 0.375  0.75 0.125 0.375  0.875 0.125 0.375  1 0.125 0.375  0 0.25 0.375  0.125 0.25 0.375  0.25 0.25 0.375  0.375 0.25 0.375  0.5 0.25 0.375  0.625 0.25 0.375  0.75 0.25 0.375  0.875 0.25 0.375  1 0.25 0.375  0 0.375 0.375  0.125 0.375 0.375  0.25 0.375 0.375  0.375 0.375 0.375  0.5 0.375 0.375  0.625 0.375 0.375  0.75 0.375 0.375  0.875 0.375 0.375  1 0.375 0.375  0 0.5 0.375  0.125 0.5 0.375  0.25 0.5 0.375  0.375 0.5 0.375  0.5 0.5 0.375  0.625 0.5 0.375  0.75 0.5 0.375  0.875 0.5 0.375  1 0.5 0.375  0 0.625 0.375  0.125 0.625 0.375  0.25 0.625 0.375  0.375 0.625 0.375  0.5 0.625 0.375  0.625 0.625 0.375  0.75 0.625 0.375  0.875 0.625 0.375  1 0.625 0.375  0 0.75 0.375  0.125 0.75 0.375  0.25 0.75 0.375  0.375 0.75 0.375  0.5 0.75 0.375  0.625 0.75 0.375  0.75 0.75 0.375  0.875 0.75 0.375  1 0.75 0.375  0 0.875 0.375  0.125 0.875 0.375  0.25 0.875 0.375  0.375 0.875 0.375  0.5 0.875 0.375  0.625 0.875 0.375  0.75 0.875 0.375  0.875 0.875 0.375  1 0.875 0.375  0 1 0.375  0.125 1 0.375  0.25 1 0.375  0.375 1 0.375  0.5 1 0.375  0.625 1 0.375  0.75 1 0.375  0.875 1 0.375  1 1 0.375  0 0 0.5  0.125 0 0.5  0.25 0 0.5  0.375 0 0.5  0.5 0 0.5  0.625 0 0.5  0.75 0 0.5  0.875 0 0.5  1 0 0.5  0 0.125 0.5  0.125 0.125 0.5  0.25 0.125 0.5  0.375 0.125 0.5  0.5 0.125 0.5  0.625 0.125 0.5  0.75 0.125 0.5  0.875 0.125 0.5  1 0.125 0.5  0 0.25 0.5  0.125 0.25 0.5  0.25 0.25 0.5  0.375 0.25 0.5  0.5 0.25 0.5  0.625 0.25 0.5  0.75 0.25 0.5  0.875 0.25 0.5  1 0.25 0.5  0 0.375 0.5  0.125 0.375 0.5  0.25 0.375 0.5  0.375 0.375 0.5  0.5 0.375 0.5  0.625 0.375 0.5  0.75 0.375 0.5  0.875 0.375 0.5  1 0.375 0.5  0 0.5 0.5  0.125 0.5 0.5  0.25 0.5 0.5  0.375 0.5 0.5  0.5 0.5 0.5  0.625 0.5 0.5  0.75 0.5 0.5  0.875 0.5 0.5  1 0.5 0.5  0 0.625 0.5  0.125 0.625 0.5  0.25 0.625 0.5  0.375 0.625 0.5  0.5 0.625 0.5  0.625 0.625 0.5  0.75 0.625 0.5  0.875 0.625 0.5  1 0.625 0.5  0 0.75 0.5  0.125 0.75 0.5  0.25 0.75 0.5  0.375 0.75 0.5  0.5 0.75 0.5  0.625 0.75 0.5  0.75 0.75 0.5  0.875 0.75 0.5  1 0.75 0.5  0 0.875 0.5  0.125 0.875 0.5  0.25 0.875 0.5  0.375 0.875 0.5  0.5 0.875 0.5  0.625 0.875 0.5  0.75 0.875 0.5  0.875 0.875 0.5  1 0.875 0.5  0 1 0.5  0.125 1 0.5  0.25 1 0.5  0.375 1 0.5  0.5 1 0.5  0.625 1 0.5  0.75 1 0.5  0.875 1 0.5  1 1 0.5  0 0 0.625  0.125 0 0.625  0.25 0 0.625  0.375 0 0.625  0.5 0 0.625  0.625 0 0.625  0.75 0 0.625  0.875 0 0.625  1 0 0.625  0 0.125 0.625  0.125 0.125 0.625  0.25 0.125 0.625  0.375 0.125 0.625  0.5 0.125 0.625  0.625 0.125 0.625  0.75 0.125 0.625  0.875 0.125 0.625  1 0.125 0.625  0 0.25 0.625  0.125 0.25 0.625  0.25 0.25 0.625  0.375 0.25 0.625  0.5 0.25 0.625  0.625 0.25 0.625  0.75 0.25 0.625  0.875 0.25 0.625  1 0.25 0.625  0 0.375 0.625  0.125 0.375 0.625  0.25 0.375 0.625  0.375 0.375 0.625  0.5 0.375 0.625  0.625 0.375 0.625  0.75 0.375 0.625  0.875 0.375 0.625  1 0.375 0.625  0 0.5 0.625  0.125 0.5 0.625  0.25 0.5 0.625  0.375 0.5 0.625  0.5 0.5 0.625  0.625 0.5 0.625  0.75 0.5 0.625  0.875 0.5 0.625  1 0.5 0.625  0 0.625 0.625  0.125 0.625 0.625  0.25 0.625 0.625  0.375 0.625 0.625  0.5 0.625 0.625  0.625 0.625 0.625  0.75 0.625 0.625  0.875 0.625 0.625  1 0.625 0.625  0 0.75 0.625  0.125 0.75 0.625  0.25 0.75 0.625  0.375 0.75 0.625  0.5 0.75 0.625  0.625 0.75 0.625  0.75 0.75 0.625  0.875 0.75 0.625  1 0.75 0.625  0 0.875 0.625  0.125 0.875 0.625  0.25 0.875 0.625  0.375 0.875 0.625  0.5 0.875 0.625  0.625 0.875 0.625  0.75 0.875 0.625  0.875 0.875 0.625  1 0.875 0.625  0 1 0.625  0.125 1 0.625  0.25 1 0.625  0.375 1 0.625  0.5 1 0.625  0.625 1 0.625  0.75 1 0.625  0.875 1 0.625  1 1 0.625  0 0 0.75  0.125 0 0.75  0.25 0 0.75  0.375 0 0.75  0.5 0 0.75  0.625 0 0.75  0.75 0 0.75  0.875 0 0.75  1 0 0.75  0 0.125 0.75  0.125 0.125 0.75  0.25 0.125 0.75  0.375 0.125 0.75  0.5 0.125 0.75  0.625 0.125 0.75  0.75 0.125 0.75  0.875 0.125 0.75  1 0.125 0.75  0 0.25 0.75  0.125 0.25 0.75  0.25 0.25 0.75  0.375 0.25 0.75  0.5 0.25 0.75  0.625 0.25 0.75  0.75 0.25 0.75  0.875 0.25 0.75  1 0.25 0.75  0 0.375 0.75  0.125 0.375 0.75  0.25 0.375 0.75  0.375 0.375 0.75  0.5 0.375 0.75  0.625 0.375 0.75  0.75 0.375 0.75  0.875 0.375 0.75  1 0.375 0.75  0 0.5 0.75  0.125 0.5 0.75  0.25 0.5 0.75  0.375 0.5 0.75  0.5 0.5 0.75  0.625 0.5 0.75  0.75 0.5 0.75  0.875 0.5 0.75  1 0.5 0.75  0 0.625 0.75  0.125 0.625 0.75  0.25 0.625 0.75  0.375 0.625 0.75  0.5 0.625 0.75  0.625 0.625 0.75  0.75 0.625 0.75  0.875 0.625 0.75  1 0.625 0.75  0 0.75 0.75  0.125 0.75 0.75  0.25 0.75 0.75  0.375 0.75 0.75  0.5 0.75 0.75  0.625 0.75 0.75  0.75 0.75 0.75  0.875 0.75 0.75  1 0.75 0.75  0 0.875 0.75  0.125 0.875 0.75  0.25 0.875 0.75  0.375 0.875 0.75  0.5 0.875 0.75  0.625 0.875 0.75  0.75 0.875 0.75  0.875 0.875 0.75  1 0.875 0.75  0 1 0.75  0.125 1 0.75  0.25 1 0.75  0.375 1 0.75  0.5 1 0.75  0.625 1 0.75  0.75 1 0.75  0.875 1 0.75  1 1 0.75  0 0 0.875  0.125 0 0.875  0.25 0 0.875  0.375 0 0.875  0.5 0 0.875  0.625 0 0.875  0.75 0 0.875  0.875 0 0.875  1 0 0.875  0 0.125 0.875  0.125 0.125 0.875  0.25 0.125 0.875  0.375 0.125 0.875  0.5 0.125 0.875  0.625 0.125 0.875  0.75 0.125 0.875  0.875 0.125 0.875  1 0.125 0.875  0 0.25 0.875  0.125 0.25 0.875  0.25 0.25 0.875  0.375 0.25 0.875  0.5 0.25 0.875  0.625 0.25 0.875  0.75 0.25 0.875  0.875 0.25 0.875  1 0.25 0.875  0 0.375 0.875  0.125 0.375 0.875  0.25 0.375 0.875  0.375 0.375 0.875  0.5 0.375 0.875  0.625 0.375 0.875  0.75 0.375 0.875  0.875 0.375 0.875  1 0.375 0.875  0 0.5 0.875  0.125 0.5 0.875  0.25 0.5 0.875  0.375 0.5 0.875  0.5 0.5 0.875  0.625 0.5 0.875  0.75 0.5 0.875  0.875 0.5 0.875  1 0.5 0.875  0 0.625 0.875  0.125 0.625 0.875  0.25 0.625 0.875  0.375 0.625 0.875  0.5 0.625 0.875  0.625 0.625 0.875  0.75 0.625 0.875  0.875 0.625 0.875  1 0.625 0.875  0 0.75 0.875  0.125 0.75 0.875  0.25 0.75 0.875  0.375 0.75 0.875  0.5 0.75 0.875  0.625 0.75 0.875  0.75 0.75 0.875  0.875 0.75 0.875  1 0.75 0.875  0 0.875 0.875  0.125 0.875 0.875  0.25 0.875 0.875  0.375 0.875 0.875  0.5 0.875 0.875  0.625 0.875 0.875  0.75 0.875 0.875  0.
[...]
<PointData  Vectors="f_25"> 
<DataArray  type="Float64"  Name="f_25"  NumberOfComponents="3" format="ascii">-1.4104122906252126e-02 -1.4104122906252126e-02 0.0000000000000000e+00  -1.4001952258466939e-02 -1.4146981048775802e-02 0.0000000000000000e+00  -1.3609278753701132e-02 -1.4626473364511651e-02 0.0000000000000000e+00  -1.2732714301720757e-02 -1.5504766285099419e-02 0.0000000000000000e+00  -1.1248336673213630e-02 -1.6625508114671270e-02 0.0000000000000000e+00  -9.1216129615964980e-03 -1.7788689852462104e-02 0.0000000000000000e+00  -6.4180076463353393e-03 -1.8785427234822256e-02 0.0000000000000000e+00  -3.3011494016558130e-03 -1.9426583149358728e-02 0.0000000000000000e+00  0.0000000000000000e+00 -1.9550906606839127e-02 0.0000000000000000e+00  -1.4146981048775809e-02 -1.4001952258466942e-02 0.0000000000000000e+00  -1.3880370965294150e-02 -1.3880370965294157e-02 0.0000000000000000e+00  -1.3312080137240022e-02 -1.4299028207292189e-02 0.0000000000000000e+00  -1.2295718245244306e-02 -1.5168745145990203e-02 0.0000000000000000e+00  -1.0748646986199047e-02 -1.6313290959788580e-02 0.0000000000000000e+00  -8.6515759704630848e-03 -1.7517991763484338e-02 0.0000000000000000e+00  -6.0608830179229300e-03 -1.8561867733287864e-02 0.0000000000000000e+00  -3.1112712699971918e-03 -1.9249725270465312e-02 0.0000000000000000e+00  0.0000000000000000e+00 -1.9446812466571751e-02 0.0000000000000000e+00  -1.4626473364511634e-02 -1.3609278753701127e-02 0.0000000000000000e+00  -1.4299028207292189e-02 -1.3312080137240017e-02 0.0000000000000000e+00  -1.3667027055515242e-02 -1.3667027055515252e-02 0.0000000000000000e+00  -1.2582740800751715e-02 -1.4511121118672287e-02 0.0000000000000000e+00  -1.0969965861293637e-02 -1.5648504475429183e-02 0.0000000000000000e+00  -8.8106408975689096e-03 -1.6859953717195359e-02 0.0000000000000000e+00  -6.1589102179320839e-03 -1.7921463179234522e-02 0.0000000000000000e+00  -3.1516617473919986e-03 -1.8634866405809331e-02 0.0000000000000000e+00  0.0000000000000000e+00 -1.8868291962720753e-02 0.0000000000000000e+00  -1.5504766285099418e-02 -1.2732714301720769e-02 0.0000000000000000e+00  -1.5168745145990191e-02 -1.2295718245244305e-02 0.0000000000000000e+00  -1.4511121118672273e-02 -1.2582740800751719e-02 0.0000000000000000e+00  -1.3381385484107928e-02 -1.3381385484107923e-02 0.0000000000000000e+00  -1.1691108273437525e-02 -1.4480692805220781e-02 0.0000000000000000e+00  -9.4093008168794155e-03 -1.5663413303141548e-02 0.0000000000000000e+00  -6.5857631772625377e-03 -1.6709242242077829e-02 0.0000000000000000e+00  -3.3702153182638360e-03 -1.7420170598231310e-02 0.0000000000000000e+00  0.0000000000000000e+00 -1.7662343993893635e-02 0.0000000000000000e+00  -1.6625508114671277e-02 -1.1248336673213651e-02 0.0000000000000000e+00  -1.6313290959788580e-02 -1.0748646986199061e-02 0.0000000000000000e+00  -1.5648504475429179e-02 -1.0969965861293627e-02 0.0000000000000000e+00  -1.4480692805220787e-02 -1.1691108273437523e-02 0.0000000000000000e+00  -1.2704432639405223e-02 -1.2704432639405228e-02 0.0000000000000000e+00  -1.0266866948439616e-02 -1.3804413677375680e-02 0.0000000000000000e+00  -7.2091314822203389e-03 -1.4783778734685457e-02 0.0000000000000000e+00  -3.6973713382749281e-03 -1.5453813367980894e-02 0.0000000000000000e+00  0.0000000000000000e+00 -1.5684560084482359e-02 0.0000000000000000e+00  -1.7788689852462108e-02 -9.1216129615964928e-03 0.0000000000000000e+00  -1.7517991763484328e-02 -8.6515759704630830e-03 0.0000000000000000e+00  -1.6859953717195359e-02 -8.8106408975689079e-03 0.0000000000000000e+00  -1.5663413303141544e-02 -9.4093008168794085e-03 0.0000000000000000e+00  -1.3804413677375685e-02 -1.0266866948439611e-02 0.0000000000000000e+00  -1.1204700299412755e-02 -1.1204700299412760e-02 0.0000000000000000e+00  -7.8944560763649727e-03 -1.2043714015690508e-02 0.0000000000000000e+00  -4.0585397972038714e-03 -1.2620721452197158e-02 0.0000000000000000e+00  0.0000000000000000e+00 -1.2821293612526964e-02 0.0000000000000000e+00  -1.8785427234822235e-02 -6.4180076463353402e-03 0.0000000000000000e+00  -1.8561867733287864e-02 -6.0608830179229318e-03 0.0000000000000000e+00  -1.7921463179234522e-02 -6.1589102179320952e-03 0.0000000000000000e+00  -1.6709242242077829e-02 -6.5857631772625463e-03 0.0000000000000000e+00  -1.4783778734685471e-02 -7.2091314822203406e-03 0.0000000000000000e+00  -1.2043714015690507e-02 -7.8944560763649675e-03 0.0000000000000000e+00  -8.5089625820117740e-03 -8.5089625820117740e-03 0.0000000000000000e+00  -4.3814748057704519e-03 -8.9339933136082048e-03 0.0000000000000000e+00  0.0000000000000000e+00 -9.0848943924978706e-03 0.0000000000000000e+00  -1.9426583149358717e-02 -3.3011494016558099e-03 0.0000000000000000e+00  -1.9249725270465309e-02 -3.1112712699972022e-03 0.0000000000000000e+00  -1.8634866405809327e-02 -3.1516617473920055e-03 0.0000000000000000e+00  -1.7420170598231310e-02 -3.3702153182638421e-03 0.0000000000000000e+00  -1.5453813367980896e-02 -3.6973713382749272e-03 0.0000000000000000e+00  -1.2620721452197163e-02 -4.0585397972038731e-03 0.0000000000000000e+00  -8.9339933136082066e-03 -4.3814748057704501e-03 0.0000000000000000e+00  -4.6088985208022079e-03 -4.6088985208022088e-03 0.0000000000000000e+00  0.0000000000000000e+00 -4.6917548671524300e-03 0.0000000000000000e+00  -1.9550906606839114e-02 0.0000000000000000e+00 0.0000000000000000e+00  -1.9446812466571747e-02 0.0000000000000000e+00 0.0000000000000000e+00  -1.8868291962720753e-02 0.0000000000000000e+00 0.0000000000000000e+00  -1.7662343993893641e-02 0.0000000000000000e+00 0.0000000000000000e+00  -1.5684560084482359e-02 0.0000000000000000e+00 0.0000000000000000e+00  -1.2821293612526966e-02 0.0000000000000000e+00 0.0000000000000000e+00  -9.0848943924978671e-03 0.0000000000000000e+00 0.0000000000000000e+00  -4.6917548671524274e-03 0.0000000000000000e+00 0.0000000000000000e+00  0.0000000000000000e+00 0.0000000000000000e+00 0.0000000000000000e+00  -1.3678481359623400e-02 -1.3678481359623407e-02 3.9033385106284658e-04  -1.3690788796297922e-02 -1.3681475619166225e-02 -1.4683960490049239e-04  -1.3393551986927897e-02 -1.4158041564266694e-02 -6.7620922978056219e-04  -1.2603192393806846e-02 -1.5040691232685709e-02 -1.2167240141894892e-03  -1.1194900737639639e-02 -1.6169929027673533e-02 -1.7447976084324127e-03  -9.1293474919258641e-03 -1.7346108426159548e-02 -2.2233109932712591e-03  -6.4649528888587569e-03 -1.8359950091243936e-02 -2.6071286922501016e-03  -3.3557656892224154e-03 -1.9018943431184151e-02 -2.8539775176857178e-03  0.0000000000000000e+00 -1.9136493331612235e-02 -2.9334366878339285e-03  -1.3681475619166212e-02 -1.3690788796297928e-02 -1.4683960490048605e-04  -1.3572561438121271e-02 -1.3572561438121272e-02 -6.7385346294515202e-04  -1.3086897358512678e-02 -1.3983812770148679e-02 -1.2050868604754938e-03  -1.2136137745708479e-02 -1.4854966613691402e-02 -1.7565987243381743e-03  -1.0649392487263785e-02 -1.6008226663608020e-02 -2.3008449553059921e-03  -8.6074103605687530e-03 -1.7226946930034896e-02 -2.7966537061144638e-03  -6.0609960767468501e-03 -1.8287486644669632e-02 -3.1937247668589485e-03  -3.1340813448731586e-03 -1.8991764685040720e-02 -3.4426773066337938e-03  0.0000000000000000e+00 -1.9211240652894167e-02 -3.5043034108832730e-03  -1.4158041564266683e-02 -1.3393551986927894e-02 -6.7620922978056750e-04  -1.3983812770148676e-02 -1.3086897358512673e-02 -1.2050868604754899e-03  -1.3438517328594385e-02 -1.3438517328594385e-02 -1.7735017202901509e-03  -1.2421027191532104e-02 -1.4288247746106538e-02 -2.3925512714643186e-03  -1.0869238770546699e-02 -1.5439666136298744e-02 -3.0228860565154809e-03  -8.7666037042395464e-03 -1.6671041778235585e-02 -3.6122473219239956e-03  -6.1612249452162272e-03 -1.7754225707901621e-02 -4.0937464137471178e-03  -3.1772538001574408e-03 -1.8487276709669438e-02 -4.3984080005247455e-03  0.0000000000000000e+00 -1.8746059635732240e-02 -4.4739865505133555e-03  -1.5040691232685702e-02 -1.2603192393806856e-02 -1.2167240141894931e-03  -1.4854966613691402e-02 -1.2136137745708474e-02 -1.7565987243381715e-03  -1.4288247746106533e-02 -1.2421027191532107e-02 -2.3925512714643212e-03  -1.3232267400780569e-02 -1.3232267400780567e-02 -3.1191699260773149e-03  -1.1609548487040435e-02 -1.4354346593712181e-02 -3.8855626723946070e-03  -9.3891448981514181e-03 -1.5566686146286346e-02 -4.6257463809070776e-03  -6.6123224238030468e-03 -1.6643240236570139e-02 -5.2480785943901202e-03  -3.4126098159522854e-03 -1.7379290262438708e-02 -5.6527909977040448e-03  0.0000000000000000e+00 -1.7642901398066096e-02 -5.7691479512536796e-03  -1.6169929027673537e-02 -1.1194900737639650e-02 -1.7447976084324223e-03  -1.6008226663608020e-02 -1.0649392487263792e-02 -2.3008449553059886e-03  -1.5439666136298744e-02 -1.0869238770546696e-02 -3.0228860565154805e-03  -1.4354346593712182e-02 -1.1609548487040435e-02 -3.8855626723946057e-03  -1.2655037549347613e-02 -1.2655037549347608e-02 -4.8254576139260003e-03  -1.0285739219739989e-02 -1.3795805400350324e-02 -5.7627566618936085e-03  -7.2746093035746980e-03 -1.4817257285826625e-02 -6.5743245206803273e-03  -3.7665551511441202e-03 -1.5520355255465964e-02 -7.1179804598674058e-03  0.0000000000000000e+00 -1.5769491555992800e-02 -7.2990955952811909e-03  -1.7346108426159537e-02 -9.1293474919258589e-03 -2.2233109932712600e-03  -1.7226946930034889e-02 -8.6074103605687600e-03 -2.7966537061144556e-03  -1.6671041778235585e-02 -8.7666037042395586e-03 -3.6122473219239904e-03  -1.5566686146286351e-02 -9.3891448981514095e-03 -4.6257463809070698e-03  -1.3795805400350331e-02 -1.0285739219739990e-02 -5.7627566618936119e-03  -1.1272861201816309e-02 -1.1272861201816321e-02 -6.9287103798500328e-03  -8.0088679782669061e-03 -1.2163245100592149e-02 -7.9615462511662995e-03  -4.1613827476482245e-03 -1.2781298291722969e-02 -8.6665878038387229e-03  0.0000000000000000e+00 -1.3003705022359990e-02 -8.9235161707568022e-03  -1.8359950091243922e-02 -6.4649528888587578e-03 -2.6071286922500964e-03  -1.8287486644669632e-02 -6.0609960767468544e-03 -3.1937247668589455e-03  -1.7754225707901621e-02 -6.1612249452162281e-03 -4.0937464137471187e-03  -1.6643240236570146e-02 -6.6123224238030485e-03 -5.2480785943901202e-03  -1.4817257285826628e-02 -7.2746093035746884e-03 -6.5743245206803273e-03  -1.2163245100592151e-02 -8.0088679782668974e-03 -7.9615462511662995e-03  -8.6744540155072915e-03 -8.6744540155072967e-03 -9.2089451444801670e-03  -4.5191002208166842e-03 -9.1415330903436894e-03 -1.0068062190892020e-02  0.0000000000000000e+00 -9.3209423354100578e-03 -1.0392464355740679e-02  -1.9018943431184158e-02 -3.3557656892224215e-03 -2.8539775176857213e-03  -1.8991764685040713e-02 -3.1340813448731695e-03 -3.4426773066337955e-03  -1.8487276709669431e-02 -3.1772538001574504e-03 -4.3984080005247455e-03  -1.7379290262438712e-02 -3.4126098159522858e-03 -5.6527909977040500e-03  -1.5520355255465960e-02 -3.7665551511441232e-03 -7.1179804598674110e-03  -1.2781298291722976e-02 -4.1613827476482340e-03 -8.6665878038387247e-03  -9.1415330903436773e-03 -4.5191002208166903e-03 -1.0068062190892022e-02  -4.7742922553227398e-03 -4.7742922553227372e-03 -1.1038683561452142e-02  0.0000000000000000e+00 -4.8829421850223763e-03 -1.1415073194662657e-02  -1.9136493331612228e-02 0.0000000000000000e+00 -2.9334366878339285e-03  -1.9211240652894160e-02 0.0000000000000000e+00 -3.5043034108832721e-03  -1.8746059635732244e-02 0.0000000000000000e+00 -4.4739865505133529e-03  -1.7642901398066093e-02 0.0000000000000000e+00 -5.7691479512536779e-03  -1.5769491555992797e-02 0.0000000000000000e+00 -7.2990955952811935e-03  -1.3003705022359997e-02 0.0000000000000000e+00 -8.9235161707568022e-03  -9.3209423354100544e-03 0.0000000000000000e+00 -1.0392464355740682e-02  -4.8829421850223728e-03 0.0000000000000000e+00 -1.1415073194662657e-02  0.0000000000000000e+00 0.0000000000000000e+00 -1.1867947705605602e-02  -1.2991424113659457e-02 -1.2991424113659467e-02 7.8801640816324973e-04  -1.3051550284935631e-02 -1.3011968630988125e-02 -2.2338086695753773e-04  -1.2840773945461849e-02 -1.3512357592347438e-02 -1.2670343666677851e-03  -1.2151409312105068e-02 -1.4434904546569729e-02 -2.3285155387892664e-03  -1.0850489934237586e-02 -1.5614918591859431e-02 -3.3636265159859278e-03  -8.8899012137157087e-03 -1.6847957784814342e-02 -4.3027735400477654e-03  -6.3204219027621147e-03 -1.7916268471194631e-02 -5.0594758847954929e-03  -3.2919385172391130e-03 -1.8617690634714232e-02 -5.5561376686655874e-03  0.0000000000000000e+00 -1.8757290879089100e-02 -5.7684298587178688e-03  -1.3011968630988115e-02 -1.3051550284935638e-02 -2.2338086695754007e-04  -1.2941438964957959e-02 -1.2941438964957972e-02 -1.1868011831772370e-03  -1.2538671462899229e-02 -1.3380921740416253e-02 -2.2422138636758473e-03  -1.1683964076690716e-02 -1.4301460965509223e-02 -3.3365838846632530e-03  -1.0299853995788373e-02 -1.5518240572518703e-02 -4.4151431512180544e-03  -8.3592021177121400e-03 -1.6807934194786732e-02 -5.3997463970770470e-03  -5.9063232142716965e-03 -1.7935343977633338e-02 -6.1923640054269433e-03  -3.0624335366894605e-03 -1.8688736948748643e-02 -6.6968236429244586e-03  0.0000000000000000e+00 -1.8929767139463014e-02 -6.8408673695343663e-03  -1.3512357592347439e-02 -1.2840773945461863e-02 -1.2670343666677970e-03  -1.3380921740416250e-02 -1.2538671462899234e-02 -2.2422138636758468e-03  -1.2930877843641369e-02 -1.2930877843641381e-02 -3.3855786707035029e-03  -1.2017700367771715e-02 -1.3844088804209027e-02 -4.6222054807518748e-03  -1.0572483332056766e-02 -1.5076030745137350e-02 -5.8802492759117550e-03  -8.5673503314838105e-03 -1.6397210210157252e-02 -7.0601055961461096e-03  -6.0425723688772503e-03 -1.7563266645278321e-02 -8.0283202648408804e-03  -3.1227535849386147e-03 -1.8353253475011124e-02 -8.6472853394535063e-03  0.0000000000000000e+00 -1.8634096924330646e-02 -8.8197694448056991e-03  -1.4434904546569731e-02 -1.2151409312105078e-02 -2.3285155387892608e-03  -1.4301460965509221e-02 -1.1683964076690726e-02 -3.3365838846632408e-03  -1.3844088804209025e-02 -1.2017700367771731e-02 -4.6222054807518662e-03  -1.2908938368966455e-02 -1.2908938368966455e-02 -6.0826142399381337e-03  -1.1404530689463538e-02 -1.4133697033245686e-02 -7.6250064514935293e-03  -9.2797186851618658e-03 -1.5461736795614592e-02 -9.1224632871171971e-03  -6.5638974880674900e-03 -1.6644546941338163e-02 -1.0387348365711063e-02  -3.3951064232854607e-03 -1.7449534825574452e-02 -1.1215099461533540e-02  0.0000000000000000e+00 -1.7731146691839880e-02 -1.1468863239596764e-02  -1.5614918591859437e-02 -1.0850489934237598e-02 -3.3636265159859334e-03  -1.5518240572518705e-02 -1.0299853995788383e-02 -4.4151431512180588e-03  -1.5076030745137341e-02 -1.0572483332056772e-02 -5.8802492759117550e-03  -1.4133697033245685e-02 -1.1404530689463548e-02 -7.6250064514935285e-03  -1.2571159026060747e-02 -1.2571159026060756e-02 -9.5340061553014620e-03  -1.0298237025122742e-02 -1.3850796615114501e-02 -1.1453645943693561e-02  -7.3239959928692059e-03 -1.5000887615379550e-02 -1.3125064971692916e-02  -3.8030541666236335e-03 -1.5786053889976882e-02 -1.4247959051530713e-02  0.0000000000000000e+00 -1.6049792501064145e-02 -1.4630839709815600e-02  -1.6847957784814349e-02 -8.8899012137157122e-03 -4.3027735400477636e-03  -1.6807934194786722e-02 -8.3592021177121504e-03 -5.3997463970770531e-03  -1.6397210210157252e-02 -8.5673503314838192e-03 -7.0601055961461113e-03  -1.5461736795614590e-02 -9.2797186851618710e-03 -9.1224632871171989e-03  -1.3850796615114493e-02 -1.0298237025122744e-02 -1.1453645943693561e-02  -1.1426874166793282e-02 -1.1426874166793295e-02 -1.3872681843652146e-02  -8.1718849701084423e-03 -1.2450760434788297e-02 -1.6029472543689385e-02  -4.2606910687086347e-03 -1.3156501087064383e-02 -1.7500767788002147e-02  0.0000000000000000e+00 -1.3396620695354100e-02 -1.8035763442656928e-02  -1.7916268471194631e-02 -6.3204219027621182e-03 -5.0594758847955033e-03  -1.7935343977633335e-02 -5.9063232142716904e-03 -6.1923640054269433e-03  -1.7563266645278328e-02 -6.0425723688772581e-03 -8.0283202648408891e-03  -1.6644546941338163e-02 -6.5638974880674848e-03 -1.0387348365711063e-02  -1.5000887615379540e-02 -7.3239959928692025e-03 -1.3125064971692912e-02  -1.2450760434788296e-02 -8.1718849701084440e-03 -1.6029472543689385e-02  -8.9456950809530256e-03 -8.9456950809530273e-03 -1.8662529104017306e-02  -4.6773392397241337e-03 -9.4872920059844278e-03 -2.0472184334837450e-02  0.0000000000000000e+00 -9.6900834771022799e-03 -2.1147601625189132e-02  -1.8617690634714239e-02 -3.2919385172391099e-03 -5.5561376686655874e-03  -1.8688736948748643e-02 -3.0624335366894540e-03 -6.6968236429244613e-03  -1.8353253475011128e-02 -3.1227535849386156e-03 -8.6472853394535115e-03  -1.7449534825574448e-02 -3.3951064232854654e-03 -1.1215099461533548e-02  -1.5786053889976871e-02 -3.8030541666236287e-03 -1.4247959051530715e-02  -1.3156501087064378e-02 -4.2606910687086313e-03 -1.7500767788002154e-02  -9.4872920059844226e-03 -4.6773392397241346e-03 -2.0472184334837454e-02  -4.9744816216495636e-03 -4.9744816216495524e-03 -2.2529733953412488e-02  0.0000000000000000e+00 -5.1027160891868508e-03 -2.3322016375996929e-02  -1.8757290879089086e-02 0.0000000000000000e+00 -5.7684298587178749e-03  -1.8929767139463018e-02 0.0000000000000000e+00 -6.8408673695343628e-03  -1.8634096924330650e-02 0.0000000000000000e+00 -8.8197694448056939e-03  -1.7731146691839880e-02 0.0000000000000000e+00 -1.1468863239596762e-02  -1.6049792501064138e-02 0.0000000000000000e+00 -1.4630839709815600e-02  -1.3396620695354102e-02 0.0000000000000000e+00 -1.8035763442656928e-02  -9.6900834771022713e-03 0.0000000000000000e+00 -2.1147601625189132e-02  -5.1027160891868508e-03 0.0000000000000000e+00 -2.3322016375996926e-02  0.0000000000000000e+00 0.0000000000000000e+00 -2.4298595725239933e-02  -1.1911151456267147e-02 -1.1911151456267151e-02 1.3189234947007043e-03  -1.2030552451002827e-02 -1.1953231225561771e-02 -1.4809198662785723e-04  -1.1907008668669476e-02 -1.2496791435325810e-02 -1.6526656836828165e-03  -1.1339212327236187e-02 -1.3472421866180109e-02 -3.1767036902332572e-03  -1.0186813296842524e-02 -1.4715524734911788e-02 -4.6596007283570603e-03  -8.3900230002459872e-03 -1.6019940980872130e-02 -6.0056755641343254e-03  -5.9892184353609358e-03 -1.7157764892266458e-02 -7.0923652790782377e-03  -3.1292152024452883e-03 -1.7913626720466952e-02 -7.8106497588407969e-03  0.0000000000000000e+00 -1.8077719891827489e-02 -8.1361445440229305e-03  -1.1953231225561762e-02 -1.2030552451002839e-02 -1.4809198662785129e-04  -1.1939229442055201e-02 -1.1939229442055213e-02 -1.5634208160309959e-03  -1.1621797163278913e-02 -1.2431655899210170e-02 -3.1028082347745434e-03  -1.0889111546056247e-02 -1.3422812874395626e-02 -4.7002404607785148e-03  -9.6521709266566280e-03 -1.4724971577265584e-02 -6.2769528734456471e-03  -7.8707094439983329e-03 -1.6110428834939856e-02 -7.7209975661751513e-03  -5.5797961303292037e-03 -1.7328732618618475e-02 -8.8877243832846797e-03  -2.8981884929637938e-03 -1.8149440240677602e-02 -9.6358609073000576e-03  0.0000000000000000e+00 -1.8427379620530874e-02 -9.8647487943136040e-03  -1.2496791435325805e-02 -1.1907008668669483e-02 -1.6526656836828200e-03  -1.2431655899210166e-02 -1.1621797163278923e-02 -3.1028082347745400e-03  -1.2079839451280820e-02 -1.2079839451280831e-02 -4.7859012171331799e-03  -1.1304673797189500e-02 -1.3087359974165989e-02 -6.6114895656291415e-03  -1.0016831119463131e-02 -1.4436097640217584e-02 -8.4769956488438755e-03  -8.1660886231333628e-03 -1.5888757387137031e-02 -1.0237292061827680e-02  -5.7811785811863591e-03 -1.7176151627651497e-02 -1.1687620412527050e-02  -2.9910583600191729e-03 -1.8047300550252377e-02 -1.2617864540610957e-02  0.0000000000000000e+00 -1.8357497330309478e-02 -1.2885182161107150e-02  -1.3472421866180107e-02 -1.1339212327236191e-02 -3.1767036902332502e-03  -1.3422812874395630e-02 -1.0889111546056237e-02 -4.7002404607785113e-03  -1.3087359974165989e-02 -1.1304673797189507e-02 -6.6114895656291441e-03  -1.2320431231021009e-02 -1.2320431231021016e-02 -8.7927202848823282e-03  -1.0996591790309878e-02 -1.3704