<?xml version="1.0"?>
<VTKFile type="UnstructuredGrid"  version="0.1"  >
<UnstructuredGrid>
<Piece  NumberOfPoints="343" NumberOfCells="1296">
<Points>
<DataArray  type="Float64"  NumberOfComponents="3"  format="ascii">0 0 0  0.1666666666666667 0 0  0.3333333333333333 0 0  0.5 0 0  0.6666666666666666 0 0  0.8333333333333334 0 0  1 0 0  0 0.1666666666666667 0  0.1666666666666667 0.1666666666666667 0  0.3333333333333333 0.1666666666666667 0  0.5 0.1666666666666667 0  0.6666666666666666 0.1666666666666667 0  0.8333333333333334 0.1666666666666667 0  1 0.1666666666666667 0  0 0.3333333333333333 0  0.1666666666666667 0.3333333333333333 0  0.3333333333333333 0.3333333333333333 0  0.5 0.3333333333333333 0  0.6666666666666666 0.3333333333333333 0  0.8333333333333334 0.3333333333333333 0  1 0.3333333333333333 0  0 0.5 0  0.1666666666666667 0.5 0  0.3333333333333333 0.5 0  0.5 0.5 0  0.6666666666666666 0.5 0  0.8333333333333334 0.5 0  1 0.5 0  0 0.6666666666666666 0  0.1666666666666667 0.6666666666666666 0  0.3333333333333333 0.6666666666666666 0  0.5 0.6666666666666666 0  0.6666666666666666 0.6666666666666666 0  0.8333333333333334 0.6666666666666666 0  1 0.6666666666666666 0  0 0.8333333333333334 0  0.1666666666666667 0.8333333333333334 0  0.3333333333333333 0.8333333333333334 0  0.5 0.8333333333333334 0  0.6666666666666666 0.8333333333333334 0  0.8333333333333334 0.8333333333333334 0  1 0.8333333333333334 0  0 1 0  0.1666666666666667 1 0  0.3333333333333333 1 0  0.5 1 0  0.6666666666666666 1 0  0.8333333333333334 1 0  1 1 0  0 0 0.1666666666666667  0.1666666666666667 0 0.1666666666666667  0.3333333333333333 0 0.1666666666666667  0.5 0 0.1666666666666667  0.6666666666666666 0 0.1666666666666667  0.8333333333333334 0 0.1666666666666667  1 0 0.1666666666666667  0 0.1666666666666667 0.1666666666666667  0.1666666666666667 0.1666666666666667 0.1666666666666667  0.3333333333333333 0.1666666666666667 0.1666666666666667  0.5 0.1666666666666667 0.1666666666666667  0.6666666666666666 0.1666666666666667 0.1666666666666667  0.8333333333333334 0.1666666666666667 0.1666666666666667  1 0.1666666666666667 0.1666666666666667  0 0.3333333333333333 0.1666666666666667  0.1666666666666667 0.3333333333333333 0.1666666666666667  0.3333333333333333 0.3333333333333333 0.1666666666666667  0.5 0.3333333333333333 0.1666666666666667  0.6666666666666666 0.3333333333333333 0.1666666666666667  0.8333333333333334 0.3333333333333333 0.1666666666666667  1 0.3333333333333333 0.1666666666666667  0 0.5 0.1666666666666667  0.1666666666666667 0.5 0.1666666666666667  0.3333333333333333 0.5 0.1666666666666667  0.5 0.5 0.1666666666666667  0.6666666666666666 0.5 0.1666666666666667  0.8333333333333334 0.5 0.1666666666666667  1 0.5 0.1666666666666667  0 0.6666666666666666 0.1666666666666667  0.1666666666666667 0.6666666666666666 0.1666666666666667  0.3333333333333333 0.6666666666666666 0.1666666666666667  0.5 0.6666666666666666 0.1666666666666667  0.6666666666666666 0.6666666666666666 0.1666666666666667  0.8333333333333334 0.6666666666666666 0.1666666666666667  1 0.6666666666666666 0.1666666666666667  0 0.8333333333333334 0.1666666666666667  0.1666666666666667 0.8333333333333334 0.1666666666666667  0.3333333333333333 0.8333333333333334 0.1666666666666667  0.5 0.8333333333333334 0.1666666666666667  0.6666666666666666 0.8333333333333334 0.1666666666666667  0.8333333333333334 0.8333333333333334 0.1666666666666667  1 0.8333333333333334 0.1666666666666667  0 1 0.1666666666666667  0.1666666666666667 1 0.1666666666666667  0.3333333333333333 1 0.1666666666666667  0.5 1 0.1666666666666667  0.6666666666666666 1 0.1666666666666667  0.8333333333333334 1 0.1666666666666667  1 1 0.1666666666666667  0 0 0.3333333333333333  0.1666666666666667 0 0.3333333333333333  0.3333333333333333 0 0.3333333333333333  0.5 0 0.3333333333333333  0.6666666666666666 0 0.3333333333333333  0.8333333333333334 0 0.3333333333333333  1 0 0.3333333333333333  0 0.1666666666666667 0.3333333333333333  0.1666666666666667 0.1666666666666667 0.3333333333333333  0.3333333333333333 0.1666666666666667 0.3333333333333333  0.5 0.1666666666666667 0.3333333333333333  0.6666666666666666 0.1666666666666667 0.3333333333333333  0.8333333333333334 0.1666666666666667 0.3333333333333333  1 0.1666666666666667 0.3333333333333333  0 0.3333333333333333 0.3333333333333333  0.1666666666666667 0.3333333333333333 0.3333333333333333  0.3333333333333333 0.3333333333333333 0.3333333333333333  0.5 0.3333333333333333 0.3333333333333333  0.6666666666666666 0.3333333333333333 0.3333333333333333  0.8333333333333334 0.3333333333333333 0.3333333333333333  1 0.3333333333333333 0.3333333333333333  0 0.5 0.3333333333333333  0.1666666666666667 0.5 0.3333333333333333  0.3333333333333333 0.5 0.3333333333333333  0.5 0.5 0.3333333333333333  0.6666666666666666 0.5 0.3333333333333333  0.8333333333333334 0.5 0.3333333333333333  1 0.5 0.3333333333333333  0 0.6666666666666666 0.3333333333333333  0.1666666666666667 0.6666666666666666 0.3333333333333333  0.3333333333333333 0.6666666666666666 0.3333333333333333  0.5 0.6666666666666666 0.3333333333333333  0.6666666666666666 0.6666666666666666 0.3333333333333333  0.8333333333333334 0.6666666666666666 0.3333333333333333  1 0.6666666666666666 0.3333333333333333  0 0.8333333333333334 0.3333333333333333  0.1666666666666667 0.8333333333333334 0.3333333333333333  0.3333333333333333 0.8333333333333334 0.3333333333333333  0.5 0.8333333333333334 0.3333333333333333  0.6666666666666666 0.8333333333333334 0.3333333333333333  0.8333333333333334 0.8333333333333334 0.3333333333333333  1 0.8333333333333334 0.3333333333333333  0 1 0.3333333333333333  0.1666666666666667 1 0.3333333333333333  0.3333333333333333 1 0.3333333333333333  0.5 1 0.3333333333333333  0.6666666666666666 1 0.3333333333333333  0.8333333333333334 1 0.3333333333333333  1 1 0.3333333333333333  0 0 0.5  0.1666666666666667 0 0.5  0.3333333333333333 0 0.5  0.5 0 0.5  0.6666666666666666 0 0.5  0.8333333333333334 0 0.5  1 0 0.5  0 0.1666666666666667 0.5  0.1666666666666667 0.1666666666666667 0.5  0.3333333333333333 0.1666666666666667 0.5  0.5 0.1666666666666667 0.5  0.6666666666666666 0.1666666666666667 0.5  0.8333333333333334 0.1666666666666667 0.5  1 0.1666666666666667 0.5  0 0.3333333333333333 0.5  0.1666666666666667 0.3333333333333333 0.5  0.3333333333333333 0.3333333333333333 0.5  0.5 0.3333333333333333 0.5  0.6666666666666666 0.3333333333333333 0.5  0.8333333333333334 0.3333333333333333 0.5  1 0.3333333333333333 0.5  0 0.5 0.5  0.1666666666666667 0.5 0.5  0.3333333333333333 0.5 0.5  0.5 0.5 0.5  0.6666666666666666 0.5 0.5  0.8333333333333334 0.5 0.5  1 0.5 0.5  0 0.6666666666666666 0.5  0.1666666666666667 0.6666666666666666 0.5  0.3333333333333333 0.6666666666666666 0.5  0.5 0.6666666666666666 0.5  0.6666666666666666 0.6666666666666666 0.5  0.8333333333333334 0.6666666666666666 0.5  1 0.6666666666666666 0.5  0 0.8333333333333334 0.5  0.1666666666666667 0.8333333333333334 0.5  0.3333333333333333 0.8333333333333334 0.5  0.5 0.8333333333333334 0.5  0.6666666666666666 0.8333333333333334 0.5  0.8333333333333334 0.8333333333333334 0.5  1 0.8333333333333334 0.5  0 1 0.5  0.1666666666666667 1 0.5  0.3333333333333333 1 0.5  0.5 1 0.5  0.6666666666666666 1 0.5  0.8333333333333334 1 0.5  1 1 0.5  0 0 0.6666666666666666  0.1666666666666667 0 0.6666666666666666  0.3333333333333333 0 0.6666666666666666  0.5 0 0.6666666666666666  0.6666666666666666 0 0.6666666666666666  0.8333333333333334 0 0.6666666666666666  1 0 0.6666666666666666  0 0.1666666666666667 0.6666666666666666  0.1666666666666667 0.1666666666666667 0.6666666666666666  0.3333333333333333 0.1666666666666667 0.6666666666666666  0.5 0.1666666666666667 0.6666666666666666  0.6666666666666666 0.1666666666666667 0.6666666666666666  0.8333333333333334 0.1666666666666667 0.6666666666666666  1 0.1666666666666667 0.6666666666666666  0 0.3333333333333333 0.6666666666666666  0.1666666666666667 0.3333333333333333 0.6666666666666666  0.3333333333333333 0.3333333333333333 0.6666666666666666  0.5 0.3333333333333333 0.6666666666666666  0.6666666666666666 0.3333333333333333 0.6666666666666666  0.8333333333333334 0.3333333333333333 0.6666666666666666  1 0.3333333333333333 0.6666666666666666  0 0.5 0.6666666666666666  0.1666666666666667 0.5 0.6666666666666666  0.3333333333333333 0.5 0.6666666666666666  0.5 0.5 0.6666666666666666  0.6666666666666666 0.5 0.6666666666666666  0.8333333333333334 0.5 0.6666666666666666  1 0.5 0.6666666666666666  0 0.6666666666666666 0.6666666666666666  0.1666666666666667 0.6666666666666666 0.6666666666666666  0.3333333333333333 0.6666666666666666 0.6666666666666666  0.5 0.6666666666666666 0.6666666666666666  0.6666666666666666 0.6666666666666666 0.6666666666666666  0.8333333333333334 0.6666666666666666 0.6666666666666666  1 0.6666666666666666 0.6666666666666666  0 0.8333333333333334 0.6666666666666666  0.1666666666666667 0.8333333333333334 0.6666666666666666  0.3333333333333333 0.8333333333333334 0.6666666666666666  0.5 0.8333333333333334 0.6666666666666666  0.6666666666666666 0.8333333333333334 0.6666666666666666  0.8333333333333334 0.8333333333333334 0.6666666666666666  1 0.8333333333333334 0.6666666666666666  0 1 0.6666666666666666  0.1666666666666667 1 0.6666666666666666  0.3333333333333333 1 0.6666666666666666  0.5 1 0.6666666666666666  0.6666666666666666 1 0.6666666666666666  0.8333333333333334 1 0.6666666666666666  1 1 0.6666666666666666  0 0 0.8333333333333334  0.1666666666666667 0 0.8333333333333334  0.3333333333333333 0 0.8333333333333334  0.5 0 0.8333333333333334  0.6666666666666666 0 0.8333333333333334  0.8333333333333334 0 0.8333333333333334  1 0 0.8333333333333334  0 0.1666666666666667 0.8333333333333334  0.1666666666666667 0.1666666666666667 0.8333333333333334  0.3333333333333333 0.1666666666666667 0.8333333333333334  0.5 0.1666666666666667 0.8333333333333334  0.6666666666666666 0.1666666666666667 0.8333333333333334  0.8333333333333334 0.1666666666666667 0.8333333333333334  1 0.16666666666
[...]
<PointData  Vectors="f_25"> 
<DataArray  type="Float64"  Name="f_25"  NumberOfComponents="3" format="ascii">-5.7546662874112722e-03 -5.7546662874112635e-03 0.0000000000000000e+00  -5.6291150096269230e-03 -5.8107176041376956e-03 0.0000000000000000e+00  -5.2390782902327800e-03 -6.1792610838068964e-03 0.0000000000000000e+00  -4.4586712437219948e-03 -6.7491114053853654e-03 0.0000000000000000e+00  -3.2532623407265523e-03 -7.3468497592667084e-03 0.0000000000000000e+00  -1.7055746726360706e-03 -7.7837327615121795e-03 0.0000000000000000e+00  0.0000000000000000e+00 -7.8891312404512689e-03 0.0000000000000000e+00  -5.8107176041377129e-03 -5.6291150096269013e-03 0.0000000000000000e+00  -5.5872105517774237e-03 -5.5872105517774072e-03 0.0000000000000000e+00  -5.1124618253981834e-03 -5.9299507141272008e-03 0.0000000000000000e+00  -4.2925027206365532e-03 -6.5071129669253833e-03 0.0000000000000000e+00  -3.1039053898228959e-03 -7.1303098669817933e-03 0.0000000000000000e+00  -1.6173862176946702e-03 -7.5994139744535094e-03 0.0000000000000000e+00  0.0000000000000000e+00 -7.7525393400606889e-03 0.0000000000000000e+00  -6.1792610838069103e-03 -5.2390782902327713e-03 0.0000000000000000e+00  -5.9299507141272181e-03 -5.1124618253981843e-03 0.0000000000000000e+00  -5.4239401150234208e-03 -5.4239401150234191e-03 0.0000000000000000e+00  -4.5598771125331776e-03 -5.9860861265024663e-03 0.0000000000000000e+00  -3.3014289924629498e-03 -6.6070969972821100e-03 0.0000000000000000e+00  -1.7170845013762532e-03 -7.0846342498112978e-03 0.0000000000000000e+00  0.0000000000000000e+00 -7.2554906759371230e-03 0.0000000000000000e+00  -6.7491114053853715e-03 -4.4586712437219896e-03 0.0000000000000000e+00  -6.5071129669253954e-03 -4.2925027206365497e-03 0.0000000000000000e+00  -5.9860861265024681e-03 -4.5598771125331828e-03 0.0000000000000000e+00  -5.0729389055336150e-03 -5.0729389055336246e-03 0.0000000000000000e+00  -3.7019619206971888e-03 -5.6500461821635661e-03 0.0000000000000000e+00  -1.9351783263074206e-03 -6.0994957263846737e-03 0.0000000000000000e+00  0.0000000000000000e+00 -6.2614645865559449e-03 0.0000000000000000e+00  -7.3468497592667084e-03 -3.2532623407265536e-03 0.0000000000000000e+00  -7.1303098669817959e-03 -3.1039053898228946e-03 0.0000000000000000e+00  -6.6070969972821169e-03 -3.3014289924629516e-03 0.0000000000000000e+00  -5.6500461821635661e-03 -3.7019619206971814e-03 0.0000000000000000e+00  -4.1581890557253823e-03 -4.1581890557253918e-03 0.0000000000000000e+00  -2.1859298574102475e-03 -4.5179871073214037e-03 0.0000000000000000e+00  0.0000000000000000e+00 -4.6480249424215156e-03 0.0000000000000000e+00  -7.7837327615121587e-03 -1.7055746726360593e-03 0.0000000000000000e+00  -7.5994139744535102e-03 -1.6173862176946782e-03 0.0000000000000000e+00  -7.0846342498113099e-03 -1.7170845013762589e-03 0.0000000000000000e+00  -6.0994957263846841e-03 -1.9351783263074278e-03 0.0000000000000000e+00  -4.5179871073214124e-03 -2.1859298574102427e-03 0.0000000000000000e+00  -2.3863777395884507e-03 -2.3863777395884554e-03 0.0000000000000000e+00  0.0000000000000000e+00 -2.4601970110524570e-03 0.0000000000000000e+00  -7.8891312404512689e-03 0.0000000000000000e+00 0.0000000000000000e+00  -7.7525393400606881e-03 0.0000000000000000e+00 0.0000000000000000e+00  -7.2554906759371334e-03 0.0000000000000000e+00 0.0000000000000000e+00  -6.2614645865559579e-03 0.0000000000000000e+00 0.0000000000000000e+00  -4.6480249424215268e-03 0.0000000000000000e+00 0.0000000000000000e+00  -2.4601970110524553e-03 0.0000000000000000e+00 0.0000000000000000e+00  0.0000000000000000e+00 0.0000000000000000e+00 0.0000000000000000e+00  -5.4541067038708715e-03 -5.4541067038708490e-03 1.8944073508085703e-04  -5.4209376910169787e-03 -5.4786141667763607e-03 -1.9982491501522050e-04  -5.1143115537699516e-03 -5.8448660157980692e-03 -5.8122962019347508e-04  -4.4073723243340948e-03 -6.4189113833648228e-03 -9.5330051453975881e-04  -3.2578423574771884e-03 -7.0262082555441318e-03 -1.2783871890373270e-03  -1.7361611618035874e-03 -7.4746972320315717e-03 -1.5008386937857413e-03  0.0000000000000000e+00 -7.5704847561502931e-03 -1.5729212740087314e-03  -5.4786141667763875e-03 -5.4209376910169752e-03 -1.9982491501522294e-04  -5.3746828549846365e-03 -5.3746828549846226e-03 -5.8443407892600895e-04  -4.9732116043524743e-03 -5.7129249841418603e-03 -9.8070183134262132e-04  -4.2156036642283469e-03 -6.2949904028039624e-03 -1.3798604513310378e-03  -3.0806522045455724e-03 -6.9298211308346158e-03 -1.7360320767993822e-03  -1.6279772275638814e-03 -7.4117047411881966e-03 -1.9788277897671330e-03  0.0000000000000000e+00 -7.5773379529842236e-03 -2.0411840860660134e-03  -5.8448660157980866e-03 -5.1143115537699421e-03 -5.8122962019345925e-04  -5.7129249841418872e-03 -4.9732116043524691e-03 -9.8070183134261763e-04  -5.2861347347641302e-03 -5.2861347347641216e-03 -1.4391056714573643e-03  -4.4888517112833537e-03 -5.8609085544612085e-03 -1.9349624628488041e-03  -3.2871741161188519e-03 -6.5022623464062682e-03 -2.4060598566136011e-03  -1.7357967036065256e-03 -6.9990245397236498e-03 -2.7447191334628931e-03  0.0000000000000000e+00 -7.1824579853357173e-03 -2.8422438198741984e-03  -6.4189113833648262e-03 -4.4073723243340818e-03 -9.5330051453973788e-04  -6.2949904028039667e-03 -4.2156036642283313e-03 -1.3798604513310237e-03  -5.8609085544612137e-03 -4.4888517112833528e-03 -1.9349624628487985e-03  -5.0243138690266040e-03 -5.0243138690265988e-03 -2.5764148205858666e-03  -3.7164671339028712e-03 -5.6344808503826999e-03 -3.2304093393598766e-03  -1.9776943746111640e-03 -6.1149426967761168e-03 -3.7344174790461091e-03  0.0000000000000000e+00 -6.2881250836931898e-03 -3.9101312995815747e-03  -7.0262082555441170e-03 -3.2578423574771949e-03 -1.2783871890373227e-03  -6.9298211308346114e-03 -3.0806522045455751e-03 -1.7360320767993748e-03  -6.5022623464062821e-03 -3.2871741161188562e-03 -2.4060598566135916e-03  -5.6344808503827025e-03 -3.7164671339028768e-03 -3.2304093393598732e-03  -4.2143402856083551e-03 -4.2143402856083508e-03 -4.1240637597280954e-03  -2.2623333763321066e-03 -4.6160840668608757e-03 -4.8462201997064875e-03  0.0000000000000000e+00 -4.7668056745978305e-03 -5.1243384192138927e-03  -7.4746972320315647e-03 -1.7361611618035891e-03 -1.5008386937857279e-03  -7.4117047411881905e-03 -1.6279772275638888e-03 -1.9788277897671322e-03  -6.9990245397236603e-03 -1.7357967036065304e-03 -2.7447191334628879e-03  -6.1149426967761220e-03 -1.9776943746111606e-03 -3.7344174790461073e-03  -4.6160840668608765e-03 -2.2623333763320988e-03 -4.8462201997064832e-03  -2.4967061036637156e-03 -2.4967061036637005e-03 -5.7754348373816053e-03  0.0000000000000000e+00 -2.5984089226487239e-03 -6.1536986542517665e-03  -7.5704847561502931e-03 0.0000000000000000e+00 -1.5729212740087297e-03  -7.5773379529842201e-03 0.0000000000000000e+00 -2.0411840860660130e-03  -7.1824579853357355e-03 0.0000000000000000e+00 -2.8422438198742002e-03  -6.2881250836932003e-03 0.0000000000000000e+00 -3.9101312995815781e-03  -4.7668056745978427e-03 0.0000000000000000e+00 -5.1243384192138910e-03  -2.5984089226487321e-03 0.0000000000000000e+00 -6.1536986542517769e-03  0.0000000000000000e+00 0.0000000000000000e+00 -6.6344367049840491e-03  -4.9641187783251387e-03 -4.9641187783251170e-03 4.1021796277558624e-04  -4.9757567760024875e-03 -5.0062396417240012e-03 -3.1638114420058503e-04  -4.7522916219693975e-03 -5.3972876085812693e-03 -1.0537320569661275e-03  -4.1447937590315216e-03 -6.0082527971184350e-03 -1.7734718157226595e-03  -3.0943012454878534e-03 -6.6627160945630006e-03 -2.4052965717248679e-03  -1.6607160030688200e-03 -7.1552059539996679e-03 -2.8455596585051420e-03  0.0000000000000000e+00 -7.2751621744704120e-03 -3.0301133848802662e-03  -5.0062396417240168e-03 -4.9757567760024867e-03 -3.1638114420056259e-04  -4.9425525569534948e-03 -4.9425525569534836e-03 -1.0212495512510972e-03  -4.6249618155490202e-03 -5.3151967517123854e-03 -1.8007394017098386e-03  -3.9650544488557130e-03 -5.9495234363352630e-03 -2.5904613462600832e-03  -2.9239571833679940e-03 -6.6486779391278167e-03 -3.2997777002750509e-03  -1.5536555252234515e-03 -7.1853897845522430e-03 -3.7897137049581701e-03  0.0000000000000000e+00 -7.3736632135750881e-03 -3.9334811440999793e-03  -5.3972876085812780e-03 -4.7522916219693949e-03 -1.0537320569661127e-03  -5.3151967517124010e-03 -4.6249618155490176e-03 -1.8007394017098329e-03  -4.9912568349392257e-03 -4.9912568349392145e-03 -2.7200406292167091e-03  -4.3037841901723793e-03 -5.6436510155002950e-03 -3.7188349580155860e-03  -3.1886308419719531e-03 -6.3786958051633338e-03 -4.6765870620819605e-03  -1.6920256319735228e-03 -6.9492669927895155e-03 -5.3698786190639223e-03  0.0000000000000000e+00 -7.1508403482980192e-03 -5.5825302958183434e-03  -6.0082527971184550e-03 -4.1447937590315120e-03 -1.7734718157226337e-03  -5.9495234363352639e-03 -3.9650544488556991e-03 -2.5904613462600641e-03  -5.6436510155003037e-03 -4.3037841901723863e-03 -3.7188349580155790e-03  -4.9417975022590169e-03 -4.9417975022590264e-03 -5.0365906248047276e-03  -3.7165647289592835e-03 -5.6798251592145594e-03 -6.4032305750011736e-03  -1.9916945214189896e-03 -6.2614705353553840e-03 -7.4611614470944396e-03  0.0000000000000000e+00 -6.4480170662673938e-03 -7.8296293959721260e-03  -6.6627160945629919e-03 -3.0943012454878369e-03 -2.4052965717248575e-03  -6.6486779391278150e-03 -2.9239571833679949e-03 -3.2997777002750448e-03  -6.3786958051633390e-03 -3.1886308419719640e-03 -4.6765870620819466e-03  -5.6798251592145707e-03 -3.7165647289592822e-03 -6.4032305750011710e-03  -4.3399356927704812e-03 -4.3399356927704786e-03 -8.3296575496273478e-03  -2.3495841219681405e-03 -4.8510414436197550e-03 -9.8922190350503800e-03  0.0000000000000000e+00 -5.0252685617065123e-03 -1.0470952598289146e-02  -7.1552059539996488e-03 -1.6607160030688308e-03 -2.8455596585051511e-03  -7.1853897845522360e-03 -1.5536555252234532e-03 -3.7897137049581649e-03  -6.9492669927895233e-03 -1.6920256319735184e-03 -5.3698786190639189e-03  -6.2614705353553849e-03 -1.9916945214189740e-03 -7.4611614470944335e-03  -4.8510414436197663e-03 -2.3495841219681357e-03 -9.8922190350503713e-03  -2.6508701812282096e-03 -2.6508701812282022e-03 -1.1950637961945261e-02  0.0000000000000000e+00 -2.7801688803736177e-03 -1.2760404889121543e-02  -7.2751621744703990e-03 0.0000000000000000e+00 -3.0301133848802675e-03  -7.3736632135750872e-03 0.0000000000000000e+00 -3.9334811440999784e-03  -7.1508403482980296e-03 0.0000000000000000e+00 -5.5825302958183399e-03  -6.4480170662673999e-03 0.0000000000000000e+00 -7.8296293959721208e-03  -5.0252685617065227e-03 0.0000000000000000e+00 -1.0470952598289151e-02  -2.7801688803736268e-03 0.0000000000000000e+00 -1.2760404889121542e-02  0.0000000000000000e+00 0.0000000000000000e+00 -1.3825241377310558e-02  -4.1728097195563238e-03 -4.1728097195563307e-03 7.3294682251377817e-04  -4.2301289542819734e-03 -4.2316275180384272e-03 -2.9114429128085042e-04  -4.0949934349798177e-03 -4.6427786774131275e-03 -1.3117000426232123e-03  -3.6237544735107344e-03 -5.2772259634122493e-03 -2.3082053355577624e-03  -2.7399122581891048e-03 -5.9707766999640335e-03 -3.1867809231111636e-03  -1.4842824558574822e-03 -6.5064677491552137e-03 -3.8025556010774161e-03  0.0000000000000000e+00 -6.6534532667783071e-03 -4.0706200800374511e-03  -4.2316275180384281e-03 -4.2301289542819864e-03 -2.9114429128085731e-04  -4.2207300599660389e-03 -4.2207300599660311e-03 -1.3140029809377799e-03  -3.9994559617452458e-03 -4.6320912764601955e-03 -2.4234710024365292e-03  -3.4791205079515212e-03 -5.3156549675644768e-03 -3.5594770013680265e-03  -2.5962460811125906e-03 -6.0829133494593726e-03 -4.5923273784563281e-03  -1.3881799725697442e-03 -6.6825879729662469e-03 -5.3137594969662879e-03  0.0000000000000000e+00 -6.9050605050023674e-03 -5.5428448587280460e-03  -4.6427786774131362e-03 -4.0949934349798246e-03 -1.3117000426232086e-03  -4.6320912764601990e-03 -3.9994559617452562e-03 -2.4234710024365275e-03  -4.4336268949179249e-03 -4.4336268949179275e-03 -3.7605326031330427e-03  -3.9119525083544278e-03 -5.1830323771030230e-03 -5.2424570636983017e-03  -2.9480957209286228e-03 -6.0451932201214557e-03 -6.6918507311118812e-03  -1.5733328003441985e-03 -6.7162611183324786e-03 -7.7454935324071435e-03  0.0000000000000000e+00 -6.9367261607486295e-03 -8.0719018605858606e-03  -5.2772259634122536e-03 -3.6237544735107209e-03 -2.3082053355577650e-03  -5.3156549675644855e-03 -3.4791205079515060e-03 -3.5594770013680221e-03  -5.1830323771030300e-03 -3.9119525083544295e-03 -5.2424570636982974e-03  -4.7030006754393968e-03 -4.7030006754394012e-03 -7.2715949819963958e-03  -3.6314048912362163e-03 -5.6501648883407404e-03 -9.4514361556652694e-03  -1.9623474959439891e-03 -6.3966090009341149e-03 -1.1138176228642578e-02  0.0000000000000000e+00 -6.5923518260187471e-03 -1.1693815114420110e-02  -5.9707766999640361e-03 -2.7399122581891005e-03 -3.1867809231111641e-03  -6.0829133494593847e-03 -2.5962460811125958e-03 -4.5923273784563247e-03  -6.0451932201214626e-03 -2.9480957209286310e-03 -6.6918507311118838e-03  -5.6501648883407500e-03 -3.6314048912362163e-03 -9.4514361556652729e-03  -4.4729948054176216e-03 -4.4729948054176216e-03 -1.2720876909567608e-02  -2.4436374106870957e-03 -5.1849532884561097e-03 -1.5366511813508133e-02  0.0000000000000000e+00 -5.3999496910959906e-03 -1.6246111447640089e-02  -6.5064677491552102e-03 -1.4842824558574780e-03 -3.8025556010774222e-03  -6.6825879729662460e-03 -1.3881799725697351e-03 -5.3137594969662853e-03  -6.7162611183324804e-03 -1.5733328003441909e-03 -7.7454935324071392e-03  -6.3966090009341210e-03 -1.9623474959439727e-03 -1.1138176228642582e-02  -5.1849532884561140e-03 -2.4436374106870831e-03 -1.5366511813508135e-02  -2.8717404616661417e-03 -2.8717404616661465e-03 -1.9005080676445844e-02  0.0000000000000000e+00 -3.0553123319361415e-03 -2.0313879223208764e-02  -6.6534532667783166e-03 0.0000000000000000e+00 -4.0706200800374641e-03  -6.9050605050023674e-03 0.0000000000000000e+00 -5.5428448587280391e-03  -6.9367261607486417e-03 0.0000000000000000e+00 -8.0719018605858589e-03  -6.5923518260187566e-03 0.0000000000000000e+00 -1.1693815114420117e-02  -5.3999496910959888e-03 0.0000000000000000e+00 -1.6246111447640089e-02  -3.0553123319361363e-03 0.0000000000000000e+00 -2.0313879223208764e-02  0.0000000000000000e+00 0.0000000000000000e+00 -2.2091925682478145e-02  -3.0371104012269371e-03 -3.0371104012269249e-03 1.0991777943520408e-03  -3.1162408577086022e-03 -3.0980292144159524e-03 -1.5107704053015809e-04  -3.0624356885473525e-03 -3.4684652856929910e-03 -1.3576082294557887e-03  -2.7574301022299792e-03 -4.0422889541950171e-03 -2.5254682130975590e-03  -2.1239852750050540e-03 -4.6920382760150155e-03 -3.5590638667159433e-03  -1.1717640813454092e-03 -5.2078294292794468e-03 -4.2888274967101412e-03  0.0000000000000000e+00 -5.3594890582820643e-03 -4.6017545152022632e-03  -3.0980292144159680e-03 -3.1162408577085927e-03 -1.5107704053015473e-04  -3.1282234653640952e-03 -3.1282234653640779e-03 -1.4463167716141185e-03  -3.0093113369717155e-03 -3.5176430216171044e-03 -2.8009799894992853e-03  -2.6673874317981938e-03 -4.1634554409268739e-03 -4.1959946439902671e-03  -2.0270908788576117e-03 -4.9154452741157085e-03 -5.4845673541203191e-03  -1.1001379153501292e-03 -5.5161979519380080e-03 -6.4033632300492102e-03  0.0000000000000000e+00 -5.7501320977949317e-03 -6.7272980970641046e-03  -3.4684652856930109e-03 -3.0624356885473629e-03 -1.3576082294557989e-03  -3.5176430216171243e-03 -3.0093113369717124e-03 -2.8009799894992897e-03  -3.4562746229404059e-03 -3.4562746229404155e-03 -4.4662765574655823e-03  -3.1532820103333642e-03 -4.2279892501615405e-03 -6.3520523735438776e-03  -2.4384556240221573e-03 -5.1590682172699036e-03 -8.2466065819395539e-03  -1.3191236041046196e-03 -5.8855262204436671e-03 -9.6378251397474784e-03  0.0000000000000000e+00 -6.0972743216401145e-03 -1.0094504176487811e-02  -4.0422889541950205e-03 -2.7574301022299744e-03 -2.5254682130975543e-03  -4.1634554409268852e-03 -2.6673874317981973e-03 -4.1959946439902654e-03  -4.2279892501615518e-03 -3.1532820103333703e-03 -6.3520523735438785e-03  -4.0667307395733246e-03 -4.0667307395733411e-03 -9.0804603895343512e-03  -3.2720700855500130e-03 -5.2467170768067950e-03 -1.2172007774550684e-02  -1.7896939790506381e-03 -6.1675501080172349e-03 -1.4546235091098154e-02  0.0000000000000000e+00 -6.3284093603416941e-03 -1.5281677876937551e-02  -4.6920382760150276e-03 -2.1239852750050427e-03 -3.5590638667159324e-03  -4.9154452741157215e-03 -2.0270908788576104e-03 -5.4845673541203148e-03  -5.1590682172699123e-03 -2.4384556240221642e-03 -8.2466065819395504e-03  -5.2467170768067881e-03 -3.2720700855500217e-03 -1.2172007774550688e-02  -4.3989648281396367e-03 -4.3989648281396307e-03 -1.7327672702552345e-02  -2.4246973358906152e-03 -5.4009866124133553e-03 -2.1437845537567980e-02  0.0000000000000000e+00 -5.6517906115498310e-03 -2.2558960909422714e-02  -5.2078294292794425e-03 -1.1717640813454012e-03 -4.2888274967101325e-03  -5.5161979519380133e-03 -1.1001379153501103e-03 -6.4033632300492041e-03  -5.8855262204436688e-03 -1.3191236041046185e-03 -9.6378251397474766e-03  -6.1675501080172357e-03 -1.7896939790506296e-03 -1.4546235091098158e-02  -5.4009866124133605e-03 -2.4246973358906169e-03 -2.1437845537567984e-02  -3.0549362021022831e-03 -3.0549362021022827e-03 -2.7496651354719806e-02  0.0000000000000000e+00 -3.3179206662665708e-03 -2.9386372588143812e-02  -5.3594890582820721e-03 0.0000000000000000e+00 -4.6017545152022598e-03  -5.7501320977949456e-03 0.0000000000000000e+00 -6.7272980970641020e-03  -6.0972743216401179e-03 0.0000000000000000e+00 -1.0094504176487806e-02  -6.3284093603417019e-03 0.0000000000000000e+00 -1.5281677876937549e-02  -5.6517906115498267e-03 0.0000000000000000e+00 -2.2558960909422717e-02  -3.3179206662665738e-03 0.0000000000000000e+00 -2.9386372588143812e-02  0.0000000000000000e+00 0.0000000000000000e+00 -3.2085812926082397e-02  -1.5937015565428464e-03 -1.5937015565428338e-03 1.3703728321830264e-03  -1.6536721249859423e-03 -1.6344717774728107e-03 -2.3303421787849923e-06  -1.6490004596326630e-03 -1.8654055168049585e-03 -1.2985354239634273e-03  -1.5112596659712769e-03 -2.2311782029753877e-03 -2.5347922956064778e-03  -1.1897847780447612e-03 -2.6651812298254768e-03 -3.6229579583666317e-03  -6.9002120176195954e-04 -3.0171421226665887e-03 -4.4196548669955841e-03  0.0000000000000000e+00 -3.1062342791511712e-03 -4.7714099545315084e-03  -1.6344717774728177e-03 -1.6536721249859293e-03 -2.3303421787730440e-06  -1.6737047935698696e-03 -1.6737047935698652e-03 -1.4724507178104937e-03  -1.6334265208181214e-03 -1.9264097595485844e-03 -2.9660664394364046e-03  -1.4768457689813745e-03 -2.3559613498805756e-03 -4.5034641080632497e-03  -1.1482750303000034e-03 -2.8873102141056418e-03 -5.9382649783360913e-03  -6.5149154093909704e-04 -3.3190756654512769e-03 -7.0074964978257713e-03  0.0000000000000000e+00 -3.4830776297896005e-03 -7.4594898789324222e-03  -1.8654055168049609e-03 -1.6490004596326686e-03 -1.2985354239634199e-03  -1.9264097595485868e-03 -1.6334265208181186e-03 -2.9660664394363964e-03  -1.9370690670087311e-03 -1.9370690670087356e-03 -4.8062179956469848e-03  -1.8373259880029205e-03 -2.4924448327538580e-03 -6.9261499034077405e-03  -1.4735289573923275e-03 -3.2365102489417688e-03 -9.1130399687854215e-03  -8.3510314646400197e-04 -3.8215693915633615e-03 -1.0773904284219114e-02  0.0000000000000000e+00 -3.9577420426539734e-03 -1.1428690160447038e-02  -2.2311782029753890e-03 -1.5112596659712678e-03 -2.5347922956064878e-03  -2.3559613498805795e-03 -1.4768457689813817e-03 -4.5034641080632506e-03  -2.4924448327538588e-03 -1.8373259880029268e-03 -6.9261499034077413e-03  -2.6221355784371006e-03 -2.6221355784371097e-03 -1.0198993467336161e-02  -2.2341644122673312e-03 -3.7994893856392177e-03 -1.4162045348431596e-02  -1.2512893098240512e-03 -4.6797815888052841e-03 -1.7168729815924374e-02  0.0000000000000000e+00 -4.7123958852838734e-03 -1.8124273784921343e-02  -2.6651812298254785e-03 -1.1897847780447501e-03 -3.6229579583666356e-03  -2.887310214105640