<?xml version="1.0"?>
<VTKFile type="UnstructuredGrid"  version="0.1"  >
<UnstructuredGrid>
<Piece  NumberOfPoints="343" NumberOfCells="1296">
<Points>
<DataArray  type="Float64"  NumberOfComponents="3"  format="ascii">0 0 0  0.1666666666666667 0 0  0.3333333333333333 0 0  0.5 0 0  0.6666666666666666 0 0  0.8333333333333334 0 0  1 0 0  0 0.1666666666666667 0  0.1666666666666667 0.1666666666666667 0  0.3333333333333333 0.1666666666666667 0  0.5 0.1666666666666667 0  0.6666666666666666 0.1666666666666667 0  0.8333333333333334 0.1666666666666667 0  1 0.1666666666666667 0  0 0.3333333333333333 0  0.1666666666666667 0.3333333333333333 0  0.3333333333333333 0.3333333333333333 0  0.5 0.3333333333333333 0  0.6666666666666666 0.3333333333333333 0  0.8333333333333334 0.3333333333333333 0  1 0.3333333333333333 0  0 0.5 0  0.1666666666666667 0.5 0  0.3333333333333333 0.5 0  0.5 0.5 0  0.6666666666666666 0.5 0  0.8333333333333334 0.5 0  1 0.5 0  0 0.6666666666666666 0  0.1666666666666667 0.6666666666666666 0  0.3333333333333333 0.6666666666666666 0  0.5 0.6666666666666666 0  0.6666666666666666 0.6666666666666666 0  0.8333333333333334 0.6666666666666666 0  1 0.6666666666666666 0  0 0.8333333333333334 0  0.1666666666666667 0.8333333333333334 0  0.3333333333333333 0.8333333333333334 0  0.5 0.8333333333333334 0  0.6666666666666666 0.8333333333333334 0  0.8333333333333334 0.8333333333333334 0  1 0.8333333333333334 0  0 1 0  0.1666666666666667 1 0  0.3333333333333333 1 0  0.5 1 0  0.6666666666666666 1 0  0.8333333333333334 1 0  1 1 0  0 0 0.1666666666666667  0.1666666666666667 0 0.1666666666666667  0.3333333333333333 0 0.1666666666666667  0.5 0 0.1666666666666667  0.6666666666666666 0 0.1666666666666667  0.8333333333333334 0 0.1666666666666667  1 0 0.1666666666666667  0 0.1666666666666667 0.1666666666666667  0.1666666666666667 0.1666666666666667 0.1666666666666667  0.3333333333333333 0.1666666666666667 0.1666666666666667  0.5 0.1666666666666667 0.1666666666666667  0.6666666666666666 0.1666666666666667 0.1666666666666667  0.8333333333333334 0.1666666666666667 0.1666666666666667  1 0.1666666666666667 0.1666666666666667  0 0.3333333333333333 0.1666666666666667  0.1666666666666667 0.3333333333333333 0.1666666666666667  0.3333333333333333 0.3333333333333333 0.1666666666666667  0.5 0.3333333333333333 0.1666666666666667  0.6666666666666666 0.3333333333333333 0.1666666666666667  0.8333333333333334 0.3333333333333333 0.1666666666666667  1 0.3333333333333333 0.1666666666666667  0 0.5 0.1666666666666667  0.1666666666666667 0.5 0.1666666666666667  0.3333333333333333 0.5 0.1666666666666667  0.5 0.5 0.1666666666666667  0.6666666666666666 0.5 0.1666666666666667  0.8333333333333334 0.5 0.1666666666666667  1 0.5 0.1666666666666667  0 0.6666666666666666 0.1666666666666667  0.1666666666666667 0.6666666666666666 0.1666666666666667  0.3333333333333333 0.6666666666666666 0.1666666666666667  0.5 0.6666666666666666 0.1666666666666667  0.6666666666666666 0.6666666666666666 0.1666666666666667  0.8333333333333334 0.6666666666666666 0.1666666666666667  1 0.6666666666666666 0.1666666666666667  0 0.8333333333333334 0.1666666666666667  0.1666666666666667 0.8333333333333334 0.1666666666666667  0.3333333333333333 0.8333333333333334 0.1666666666666667  0.5 0.8333333333333334 0.1666666666666667  0.6666666666666666 0.8333333333333334 0.1666666666666667  0.8333333333333334 0.8333333333333334 0.1666666666666667  1 0.8333333333333334 0.1666666666666667  0 1 0.1666666666666667  0.1666666666666667 1 0.1666666666666667  0.3333333333333333 1 0.1666666666666667  0.5 1 0.1666666666666667  0.6666666666666666 1 0.1666666666666667  0.8333333333333334 1 0.1666666666666667  1 1 0.1666666666666667  0 0 0.3333333333333333  0.1666666666666667 0 0.3333333333333333  0.3333333333333333 0 0.3333333333333333  0.5 0 0.3333333333333333  0.6666666666666666 0 0.3333333333333333  0.8333333333333334 0 0.3333333333333333  1 0 0.3333333333333333  0 0.1666666666666667 0.3333333333333333  0.1666666666666667 0.1666666666666667 0.3333333333333333  0.3333333333333333 0.1666666666666667 0.3333333333333333  0.5 0.1666666666666667 0.3333333333333333  0.6666666666666666 0.1666666666666667 0.3333333333333333  0.8333333333333334 0.1666666666666667 0.3333333333333333  1 0.1666666666666667 0.3333333333333333  0 0.3333333333333333 0.3333333333333333  0.1666666666666667 0.3333333333333333 0.3333333333333333  0.3333333333333333 0.3333333333333333 0.3333333333333333  0.5 0.3333333333333333 0.3333333333333333  0.6666666666666666 0.3333333333333333 0.3333333333333333  0.8333333333333334 0.3333333333333333 0.3333333333333333  1 0.3333333333333333 0.3333333333333333  0 0.5 0.3333333333333333  0.1666666666666667 0.5 0.3333333333333333  0.3333333333333333 0.5 0.3333333333333333  0.5 0.5 0.3333333333333333  0.6666666666666666 0.5 0.3333333333333333  0.8333333333333334 0.5 0.3333333333333333  1 0.5 0.3333333333333333  0 0.6666666666666666 0.3333333333333333  0.1666666666666667 0.6666666666666666 0.3333333333333333  0.3333333333333333 0.6666666666666666 0.3333333333333333  0.5 0.6666666666666666 0.3333333333333333  0.6666666666666666 0.6666666666666666 0.3333333333333333  0.8333333333333334 0.6666666666666666 0.3333333333333333  1 0.6666666666666666 0.3333333333333333  0 0.8333333333333334 0.3333333333333333  0.1666666666666667 0.8333333333333334 0.3333333333333333  0.3333333333333333 0.8333333333333334 0.3333333333333333  0.5 0.8333333333333334 0.3333333333333333  0.6666666666666666 0.8333333333333334 0.3333333333333333  0.8333333333333334 0.8333333333333334 0.3333333333333333  1 0.8333333333333334 0.3333333333333333  0 1 0.3333333333333333  0.1666666666666667 1 0.3333333333333333  0.3333333333333333 1 0.3333333333333333  0.5 1 0.3333333333333333  0.6666666666666666 1 0.3333333333333333  0.8333333333333334 1 0.3333333333333333  1 1 0.3333333333333333  0 0 0.5  0.1666666666666667 0 0.5  0.3333333333333333 0 0.5  0.5 0 0.5  0.6666666666666666 0 0.5  0.8333333333333334 0 0.5  1 0 0.5  0 0.1666666666666667 0.5  0.1666666666666667 0.1666666666666667 0.5  0.3333333333333333 0.1666666666666667 0.5  0.5 0.1666666666666667 0.5  0.6666666666666666 0.1666666666666667 0.5  0.8333333333333334 0.1666666666666667 0.5  1 0.1666666666666667 0.5  0 0.3333333333333333 0.5  0.1666666666666667 0.3333333333333333 0.5  0.3333333333333333 0.3333333333333333 0.5  0.5 0.3333333333333333 0.5  0.6666666666666666 0.3333333333333333 0.5  0.8333333333333334 0.3333333333333333 0.5  1 0.3333333333333333 0.5  0 0.5 0.5  0.1666666666666667 0.5 0.5  0.3333333333333333 0.5 0.5  0.5 0.5 0.5  0.6666666666666666 0.5 0.5  0.8333333333333334 0.5 0.5  1 0.5 0.5  0 0.6666666666666666 0.5  0.1666666666666667 0.6666666666666666 0.5  0.3333333333333333 0.6666666666666666 0.5  0.5 0.6666666666666666 0.5  0.6666666666666666 0.6666666666666666 0.5  0.8333333333333334 0.6666666666666666 0.5  1 0.6666666666666666 0.5  0 0.8333333333333334 0.5  0.1666666666666667 0.8333333333333334 0.5  0.3333333333333333 0.8333333333333334 0.5  0.5 0.8333333333333334 0.5  0.6666666666666666 0.8333333333333334 0.5  0.8333333333333334 0.8333333333333334 0.5  1 0.8333333333333334 0.5  0 1 0.5  0.1666666666666667 1 0.5  0.3333333333333333 1 0.5  0.5 1 0.5  0.6666666666666666 1 0.5  0.8333333333333334 1 0.5  1 1 0.5  0 0 0.6666666666666666  0.1666666666666667 0 0.6666666666666666  0.3333333333333333 0 0.6666666666666666  0.5 0 0.6666666666666666  0.6666666666666666 0 0.6666666666666666  0.8333333333333334 0 0.6666666666666666  1 0 0.6666666666666666  0 0.1666666666666667 0.6666666666666666  0.1666666666666667 0.1666666666666667 0.6666666666666666  0.3333333333333333 0.1666666666666667 0.6666666666666666  0.5 0.1666666666666667 0.6666666666666666  0.6666666666666666 0.1666666666666667 0.6666666666666666  0.8333333333333334 0.1666666666666667 0.6666666666666666  1 0.1666666666666667 0.6666666666666666  0 0.3333333333333333 0.6666666666666666  0.1666666666666667 0.3333333333333333 0.6666666666666666  0.3333333333333333 0.3333333333333333 0.6666666666666666  0.5 0.3333333333333333 0.6666666666666666  0.6666666666666666 0.3333333333333333 0.6666666666666666  0.8333333333333334 0.3333333333333333 0.6666666666666666  1 0.3333333333333333 0.6666666666666666  0 0.5 0.6666666666666666  0.1666666666666667 0.5 0.6666666666666666  0.3333333333333333 0.5 0.6666666666666666  0.5 0.5 0.6666666666666666  0.6666666666666666 0.5 0.6666666666666666  0.8333333333333334 0.5 0.6666666666666666  1 0.5 0.6666666666666666  0 0.6666666666666666 0.6666666666666666  0.1666666666666667 0.6666666666666666 0.6666666666666666  0.3333333333333333 0.6666666666666666 0.6666666666666666  0.5 0.6666666666666666 0.6666666666666666  0.6666666666666666 0.6666666666666666 0.6666666666666666  0.8333333333333334 0.6666666666666666 0.6666666666666666  1 0.6666666666666666 0.6666666666666666  0 0.8333333333333334 0.6666666666666666  0.1666666666666667 0.8333333333333334 0.6666666666666666  0.3333333333333333 0.8333333333333334 0.6666666666666666  0.5 0.8333333333333334 0.6666666666666666  0.6666666666666666 0.8333333333333334 0.6666666666666666  0.8333333333333334 0.8333333333333334 0.6666666666666666  1 0.8333333333333334 0.6666666666666666  0 1 0.6666666666666666  0.1666666666666667 1 0.6666666666666666  0.3333333333333333 1 0.6666666666666666  0.5 1 0.6666666666666666  0.6666666666666666 1 0.6666666666666666  0.8333333333333334 1 0.6666666666666666  1 1 0.6666666666666666  0 0 0.8333333333333334  0.1666666666666667 0 0.8333333333333334  0.3333333333333333 0 0.8333333333333334  0.5 0 0.8333333333333334  0.6666666666666666 0 0.8333333333333334  0.8333333333333334 0 0.8333333333333334  1 0 0.8333333333333334  0 0.1666666666666667 0.8333333333333334  0.1666666666666667 0.1666666666666667 0.8333333333333334  0.3333333333333333 0.1666666666666667 0.8333333333333334  0.5 0.1666666666666667 0.8333333333333334  0.6666666666666666 0.1666666666666667 0.8333333333333334  0.8333333333333334 0.1666666666666667 0.8333333333333334  1 0.16666666666
[...]
<PointData  Vectors="f_25"> 
<DataArray  type="Float64"  Name="f_25"  NumberOfComponents="3" format="ascii">-1.1514324855579509e-02 -1.1514324855579478e-02 0.0000000000000000e+00  -1.1284678689562417e-02 -1.1632532726749420e-02 0.0000000000000000e+00  -1.0522718425243714e-02 -1.2392118593958558e-02 0.0000000000000000e+00  -8.9712003940809470e-03 -1.3564695724853056e-02 0.0000000000000000e+00  -6.5554982396885519e-03 -1.4796189835585224e-02 0.0000000000000000e+00  -3.4398677404409682e-03 -1.5699492453178830e-02 0.0000000000000000e+00  0.0000000000000000e+00 -1.5920430422063120e-02 0.0000000000000000e+00  -1.1632532726749415e-02 -1.1284678689562386e-02 0.0000000000000000e+00  -1.1204815503447164e-02 -1.1204815503447155e-02 0.0000000000000000e+00  -1.0271329208913259e-02 -1.1915756209511243e-02 0.0000000000000000e+00  -8.6394475669139929e-03 -1.3108022264431621e-02 0.0000000000000000e+00  -6.2567217790439932e-03 -1.4395987524258963e-02 0.0000000000000000e+00  -3.2629736489347299e-03 -1.5368202172075605e-02 0.0000000000000000e+00  0.0000000000000000e+00 -1.5686551108134099e-02 0.0000000000000000e+00  -1.2392118593958553e-02 -1.0522718425243686e-02 0.0000000000000000e+00  -1.1915756209511245e-02 -1.0271329208913238e-02 0.0000000000000000e+00  -1.0922232661374194e-02 -1.0922232661374176e-02 0.0000000000000000e+00  -9.2028806329185718e-03 -1.2090103134633221e-02 0.0000000000000000e+00  -6.6763053111541446e-03 -1.3381641201302962e-02 0.0000000000000000e+00  -3.4759654142071657e-03 -1.4378610476192868e-02 0.0000000000000000e+00  0.0000000000000000e+00 -1.4735855193832173e-02 0.0000000000000000e+00  -1.3564695724853068e-02 -8.9712003940809297e-03 0.0000000000000000e+00  -1.3108022264431628e-02 -8.6394475669139669e-03 0.0000000000000000e+00  -1.2090103134633228e-02 -9.2028806329185701e-03 0.0000000000000000e+00  -1.0276488008705462e-02 -1.0276488008705460e-02 0.0000000000000000e+00  -7.5205373982435977e-03 -1.1487427173933249e-02 0.0000000000000000e+00  -3.9376190716422128e-03 -1.2436466219748751e-02 0.0000000000000000e+00  0.0000000000000000e+00 -1.2780056444732745e-02 0.0000000000000000e+00  -1.4796189835585243e-02 -6.5554982396885458e-03 0.0000000000000000e+00  -1.4395987524258963e-02 -6.2567217790439941e-03 0.0000000000000000e+00  -1.3381641201302964e-02 -6.6763053111541411e-03 0.0000000000000000e+00  -1.1487427173933255e-02 -7.5205373982435960e-03 0.0000000000000000e+00  -8.4871785789868565e-03 -8.4871785789868565e-03 0.0000000000000000e+00  -4.4722933719842720e-03 -9.2566549588557895e-03 0.0000000000000000e+00  0.0000000000000000e+00 -9.5372880522867545e-03 0.0000000000000000e+00  -1.5699492453178827e-02 -3.4398677404409526e-03 0.0000000000000000e+00  -1.5368202172075594e-02 -3.2629736489347251e-03 0.0000000000000000e+00  -1.4378610476192872e-02 -3.4759654142071548e-03 0.0000000000000000e+00  -1.2436466219748747e-02 -3.9376190716422128e-03 0.0000000000000000e+00  -9.2566549588558034e-03 -4.4722933719842694e-03 0.0000000000000000e+00  -4.9039396298591331e-03 -4.9039396298591227e-03 0.0000000000000000e+00  0.0000000000000000e+00 -5.0650684086820030e-03 0.0000000000000000e+00  -1.5920430422063113e-02 0.0000000000000000e+00 0.0000000000000000e+00  -1.5686551108134102e-02 0.0000000000000000e+00 0.0000000000000000e+00  -1.4735855193832170e-02 0.0000000000000000e+00 0.0000000000000000e+00  -1.2780056444732735e-02 0.0000000000000000e+00 0.0000000000000000e+00  -9.5372880522867458e-03 0.0000000000000000e+00 0.0000000000000000e+00  -5.0650684086820021e-03 0.0000000000000000e+00 0.0000000000000000e+00  0.0000000000000000e+00 0.0000000000000000e+00 0.0000000000000000e+00  -1.0903538596168050e-02 -1.0903538596168038e-02 4.5631548606658298e-04  -1.0859463166026191e-02 -1.0957055074032454e-02 -3.2492706154068127e-04  -1.0264782560463613e-02 -1.1708746557603192e-02 -1.0804898575897911e-03  -8.8613030733698094e-03 -1.2885114236613855e-02 -1.8137514947078096e-03  -6.5597362472297723e-03 -1.4131250614783396e-02 -2.4531695511555577e-03  -3.4993560043523799e-03 -1.5055113407871565e-02 -2.8897050189158305e-03  0.0000000000000000e+00 -1.5257653552415004e-02 -3.0290420107617387e-03  -1.0957055074032466e-02 -1.0859463166026177e-02 -3.2492706154067731e-04  -1.0771275478725556e-02 -1.0771275478725546e-02 -1.1007448396319125e-03  -9.9849280701440647e-03 -1.1471132432368270e-02 -1.8895509443842158e-03  -8.4786580544135709e-03 -1.2670075371396233e-02 -2.6809612796530962e-03  -6.2053195166074495e-03 -1.3978121995797023e-02 -3.3865352040519307e-03  -3.2822585957867178e-03 -1.4974155169500502e-02 -3.8669870783624525e-03  0.0000000000000000e+00 -1.5320383157200527e-02 -3.9885983090098484e-03  -1.1708746557603213e-02 -1.0264782560463610e-02 -1.0804898575897889e-03  -1.1471132432368266e-02 -9.9849280701440560e-03 -1.8895509443842213e-03  -1.0637435207004789e-02 -1.0637435207004775e-02 -2.8046969320330425e-03  -9.0532796879126305e-03 -1.1828440391946325e-02 -3.7923380212601392e-03  -6.6430694262877826e-03 -1.3158449720716555e-02 -4.7316542612596433e-03  -3.5123196073847114e-03 -1.4192646326617559e-02 -5.4075581070567392e-03  0.0000000000000000e+00 -1.4576985428027068e-02 -5.5993970745661118e-03  -1.2885114236613864e-02 -8.8613030733698146e-03 -1.8137514947077936e-03  -1.2670075371396241e-02 -8.4786580544135709e-03 -2.6809612796530919e-03  -1.1828440391946337e-02 -9.0532796879126288e-03 -3.7923380212601418e-03  -1.0170972545201927e-02 -1.0170972545201926e-02 -5.0758352331300213e-03  -7.5455995670373676e-03 -1.1447692877655813e-02 -6.3888667589944680e-03  -4.0232577967004302e-03 -1.2459228179255257e-02 -7.4049937815095614e-03  0.0000000000000000e+00 -1.2826811336383826e-02 -7.7567364899992419e-03  -1.4131250614783392e-02 -6.5597362472297636e-03 -2.4531695511555555e-03  -1.3978121995797024e-02 -6.2053195166074373e-03 -3.3865352040519251e-03  -1.3158449720716552e-02 -6.6430694262877782e-03 -4.7316542612596364e-03  -1.1447692877655818e-02 -7.5455995670373633e-03 -6.3888667589944723e-03  -8.5979606563326705e-03 -8.5979606563326583e-03 -8.1965461604886596e-03  -4.6295623248220324e-03 -9.4553222082604336e-03 -9.6693914204509703e-03  0.0000000000000000e+00 -9.7808637117221334e-03 -1.0237456820549495e-02  -1.5055113407871561e-02 -3.4993560043523626e-03 -2.8897050189158301e-03  -1.4974155169500484e-02 -3.2822585957867170e-03 -3.8669870783624447e-03  -1.4192646326617557e-02 -3.5123196073847040e-03 -5.4075581070567339e-03  -1.2459228179255266e-02 -4.0232577967004093e-03 -7.4049937815095605e-03  -9.4553222082604371e-03 -4.6295623248220185e-03 -9.6693914204509721e-03  -5.1350049119352169e-03 -5.1350049119352204e-03 -1.1585748165634043e-02  0.0000000000000000e+00 -5.3582398448554702e-03 -1.2371003714519466e-02  -1.5257653552414997e-02 0.0000000000000000e+00 -3.0290420107617322e-03  -1.5320383157200518e-02 0.0000000000000000e+00 -3.9885983090098389e-03  -1.4576985428027073e-02 0.0000000000000000e+00 -5.5993970745661023e-03  -1.2826811336383822e-02 0.0000000000000000e+00 -7.7567364899992384e-03  -9.7808637117221299e-03 0.0000000000000000e+00 -1.0237456820549495e-02  -5.3582398448554606e-03 0.0000000000000000e+00 -1.2371003714519461e-02  0.0000000000000000e+00 0.0000000000000000e+00 -1.3370960349235916e-02  -9.9030619237409981e-03 -9.9030619237409825e-03 9.5479513845675781e-04  -9.9450977980083000e-03 -9.9917475239679684e-03 -4.9786256031448758e-04  -9.5161848357990225e-03 -1.0786960717024695e-02 -1.9567129073536868e-03  -8.3139824049814400e-03 -1.2028853233885658e-02 -3.3737218032237537e-03  -6.2162919139533562e-03 -1.3361425782325924e-02 -4.6151113203999417e-03  -3.3402264385621076e-03 -1.4368446002453086e-02 -5.4784124759147297e-03  0.0000000000000000e+00 -1.4619901293910354e-02 -5.8380263698066970e-03  -9.9917475239679702e-03 -9.9450977980082948e-03 -4.9786256031448975e-04  -9.8844909961297127e-03 -9.8844909961297075e-03 -1.9141142947024889e-03  -9.2672273238867953e-03 -1.0647958510661025e-02 -3.4629745602757223e-03  -7.9596381587175510e-03 -1.1943688203211457e-02 -5.0260506227639990e-03  -5.8793393347661036e-03 -1.3372922227116486e-02 -6.4284628880683673e-03  -3.1275962879068805e-03 -1.4474017476575490e-02 -7.3962295982334843e-03  0.0000000000000000e+00 -1.4865025393466028e-02 -7.6780663302615697e-03  -1.0786960717024697e-02 -9.5161848357990016e-03 -1.9567129073536703e-03  -1.0647958510661028e-02 -9.2672273238867918e-03 -3.4629745602757197e-03  -1.0023427996820211e-02 -1.0023427996820204e-02 -5.2943448246764811e-03  -8.6644279594695964e-03 -1.1364836076542524e-02 -7.2795417359385831e-03  -6.4337470581781481e-03 -1.2878059787195499e-02 -9.1845191620160294e-03  -3.4190688517621447e-03 -1.4058142202467672e-02 -1.0564516932085492e-02  0.0000000000000000e+00 -1.4478777760587818e-02 -1.0984375564189942e-02  -1.2028853233885655e-02 -8.3139824049814435e-03 -3.3737218032237381e-03  -1.1943688203211449e-02 -7.9596381587175406e-03 -5.0260506227639929e-03  -1.1364836076542529e-02 -8.6644279594695998e-03 -7.2795417359385788e-03  -9.9871381804087916e-03 -9.9871381804087899e-03 -9.9105902466391747e-03  -7.5363684012667836e-03 -1.1522048809357163e-02 -1.2647664428301928e-02  -4.0472099377486378e-03 -1.2740306363205844e-02 -1.4773622806325817e-02  0.0000000000000000e+00 -1.3136243897565056e-02 -1.5509829896680774e-02  -1.3361425782325926e-02 -6.2162919139533476e-03 -4.6151113203999347e-03  -1.3372922227116477e-02 -5.8793393347661158e-03 -6.4284628880683604e-03  -1.2878059787195495e-02 -6.4337470581781343e-03 -9.1845191620160156e-03  -1.1522048809357158e-02 -7.5363684012667732e-03 -1.2647664428301921e-02  -8.8485994646378009e-03 -8.8485994646377904e-03 -1.6535951864412306e-02  -4.8068742844564099e-03 -9.9366056343100709e-03 -1.9713290432058748e-02  0.0000000000000000e+00 -1.0314168869234225e-02 -2.0890064600119416e-02  -1.4368446002453097e-02 -3.3402264385621180e-03 -5.4784124759147184e-03  -1.4474017476575488e-02 -3.1275962879068835e-03 -7.3962295982334739e-03  -1.4058142202467669e-02 -3.4190688517621382e-03 -1.0564516932085486e-02  -1.2740306363205849e-02 -4.0472099377486396e-03 -1.4773622806325810e-02  -9.9366056343100743e-03 -4.8068742844564133e-03 -1.9713290432058748e-02  -5.4566527081561364e-03 -5.4566527081561407e-03 -2.3948560396242567e-02  0.0000000000000000e+00 -5.7421084610000776e-03 -2.5623774727772875e-02  -1.4619901293910361e-02 0.0000000000000000e+00 -5.8380263698066866e-03  -1.4865025393466028e-02 0.0000000000000000e+00 -7.6780663302615524e-03  -1.4478777760587825e-02 0.0000000000000000e+00 -1.0984375564189928e-02  -1.3136243897565068e-02 0.0000000000000000e+00 -1.5509829896680765e-02  -1.0314168869234235e-02 0.0000000000000000e+00 -2.0890064600119409e-02  -5.7421084610000638e-03 0.0000000000000000e+00 -2.5623774727772868e-02  0.0000000000000000e+00 0.0000000000000000e+00 -2.7833159877429944e-02  -8.2978229681085983e-03 -8.2978229681085897e-03 1.6238181274019555e-03  -8.4257942108397540e-03 -8.4200909503828504e-03 -4.1528939342376124e-04  -8.1702430138673177e-03 -9.2473067889913222e-03 -2.4309353593047877e-03  -7.2414196988695376e-03 -1.0524100712145686e-02 -4.3904136991893272e-03  -5.4832376887042266e-03 -1.1922073889142619e-02 -6.1139012151540627e-03  -2.9741324295321637e-03 -1.3005582246970876e-02 -7.3192589001272387e-03  0.0000000000000000e+00 -1.3308175811028463e-02 -7.8410608759465431e-03  -8.4200909503828608e-03 -8.4257942108397401e-03 -4.1528939342377067e-04  -8.4142356119170283e-03 -8.4142356119170300e-03 -2.4598053277714569e-03  -7.9881955058263166e-03 -9.2465392980988388e-03 -4.6581105412596673e-03  -6.9620792789970723e-03 -1.0627918344038215e-02 -6.9014522821659692e-03  -5.2045368288395118e-03 -1.2180058619477092e-02 -8.9384248478334757e-03  -2.7868252852890560e-03 -1.3397386243086793e-02 -1.0360272817340832e-02  0.0000000000000000e+00 -1.3853391416922954e-02 -1.0811415339685014e-02  -9.2473067889913239e-03 -8.1702430138673090e-03 -2.4309353593047777e-03  -9.2465392980988301e-03 -7.9881955058263114e-03 -4.6581105412596604e-03  -8.8720463684445194e-03 -8.8720463684445194e-03 -7.3106469898057101e-03  -7.8495434442903203e-03 -1.0396299682701556e-02 -1.0245647207619387e-02  -5.9302884891120873e-03 -1.2153104144395294e-02 -1.3117351212136096e-02  -3.1706109444477951e-03 -1.3527614956505379e-02 -1.5205933364543053e-02  0.0000000000000000e+00 -1.3984278434839535e-02 -1.5851662030028291e-02  -1.0524100712145681e-02 -7.2414196988695324e-03 -4.3904136991893185e-03  -1.0627918344038206e-02 -6.9620792789970715e-03 -6.9014522821659614e-03  -1.0396299682701549e-02 -7.8495434442903134e-03 -1.0245647207619391e-02  -9.4742476063784924e-03 -9.4742476063784907e-03 -1.4280823465376158e-02  -7.3455469370953689e-03 -1.1427887821894474e-02 -1.8628278707189274e-02  -3.9781264665081258e-03 -1.2978749409623593e-02 -2.1999086825471255e-02  0.0000000000000000e+00 -1.3393640908574065e-02 -2.3103751840945239e-02  -1.1922073889142602e-02 -5.4832376887042310e-03 -6.1139012151540514e-03  -1.2180058619477093e-02 -5.2045368288394980e-03 -8.9384248478334705e-03  -1.2153104144395292e-02 -5.9302884891120917e-03 -1.3117351212136094e-02  -1.1427887821894462e-02 -7.3455469370953741e-03 -1.8628278707189267e-02  -9.1108912591626630e-03 -9.1108912591626543e-03 -2.5203266286092502e-02  -4.9982781704204834e-03 -1.0621499882446641e-02 -3.0555529480394649e-02  0.0000000000000000e+00 -1.1086438835243363e-02 -3.2326565488239797e-02  -1.3005582246970876e-02 -2.9741324295321702e-03 -7.3192589001272205e-03  -1.3397386243086796e-02 -2.7868252852890668e-03 -1.0360272817340820e-02  -1.3527614956505380e-02 -3.1706109444478141e-03 -1.5205933364543048e-02  -1.2978749409623597e-02 -3.9781264665081318e-03 -2.1999086825471248e-02  -1.0621499882446629e-02 -4.9982781704204816e-03 -3.0555529480394639e-02  -5.9248067811181688e-03 -5.9248067811181748e-03 -3.8013576747073452e-02  0.0000000000000000e+00 -6.3309874305382445e-03 -4.0702141049142097e-02  -1.3308175811028462e-02 0.0000000000000000e+00 -7.8410608759465258e-03  -1.3853391416922963e-02 0.0000000000000000e+00 -1.0811415339685007e-02  -1.3984278434839544e-02 0.0000000000000000e+00 -1.5851662030028281e-02  -1.3393640908574070e-02 0.0000000000000000e+00 -2.3103751840945229e-02  -1.1086438835243363e-02 0.0000000000000000e+00 -3.2326565488239790e-02  -6.3309874305382246e-03 0.0000000000000000e+00 -4.0702141049142097e-02  0.0000000000000000e+00 0.0000000000000000e+00 -4.4371872984730318e-02  -6.0134939569529778e-03 -6.0134939569529743e-03 2.3429653201386103e-03  -6.1803355048357595e-03 -6.1404888787168705e-03 -1.3844765618263298e-04  -6.0821294699780785e-03 -6.8788745128781290e-03 -2.5202635201179192e-03  -5.4827901417254946e-03 -8.0225707354064455e-03 -4.8167387362690840e-03  -4.2277578991272019e-03 -9.3181160015899621e-03 -6.8434755697188857e-03  -2.3347044624440700e-03 -1.0347412468665430e-02 -8.2710379846789982e-03  0.0000000000000000e+00 -1.0650774589009617e-02 -8.8803965012108337e-03  -6.1404888787168783e-03 -6.1803355048357551e-03 -1.3844765618263840e-04  -6.2126687656909136e-03 -6.2126687656909162e-03 -2.7160913321014543e-03  -5.9865338024478873e-03 -6.9917601231139258e-03 -5.3958056460579745e-03  -5.3145629437875829e-03 -8.2826914428921015e-03 -8.1465331177627397e-03  -4.0452579843470579e-03 -9.7865203992132839e-03 -1.0683158750895882e-02  -2.1987050747597457e-03 -1.0989908901828304e-02 -1.2490363079586416e-02  0.0000000000000000e+00 -1.1459626213765700e-02 -1.3129450103295626e-02  -6.8788745128781350e-03 -6.0821294699780698e-03 -2.5202635201179058e-03  -6.9917601231139163e-03 -5.9865338024478873e-03 -5.3958056460579745e-03  -6.8816132879186828e-03 -6.8816132879186845e-03 -8.6873505839917386e-03  -6.2914117908520013e-03 -8.4292384585993776e-03 -1.2406511291304859e-02  -4.8778510816469929e-03 -1.0301738538329896e-02 -1.6144362151626322e-02  -2.6443400623945368e-03 -1.1769573326481131e-02 -1.8889371366423102e-02  0.0000000000000000e+00 -1.2204565012069594e-02 -1.9795751780475043e-02  -8.0225707354064368e-03 -5.4827901417254981e-03 -4.8167387362690901e-03  -8.2826914428920963e-03 -5.3145629437875812e-03 -8.1465331177627380e-03  -8.4292384585993706e-03 -6.2914117908520065e-03 -1.2406511291304859e-02  -8.1395326081935056e-03 -8.1395326081935039e-03 -1.7796452532140072e-02  -6.5837640914176050e-03 -1.0543836000277515e-02 -2.3924983096964208e-02  -3.6096156539794275e-03 -1.2432847080337961e-02 -2.8633157811010536e-02  0.0000000000000000e+00 -1.2776543179315479e-02 -3.0091463811110965e-02  -9.3181160015899465e-03 -4.2277578991272175e-03 -6.8434755697188666e-03  -9.7865203992132770e-03 -4.0452579843470587e-03 -1.0683158750895864e-02  -1.0301738538329884e-02 -4.8778510816469894e-03 -1.6144362151626311e-02  -1.0543836000277508e-02 -6.5837640914176050e-03 -2.3924983096964201e-02  -8.9413080837730582e-03 -8.9413080837730651e-03 -3.4235105983994166e-02  -4.9614027499337871e-03 -1.1059150313843831e-02 -4.2485060631579676e-02  0.0000000000000000e+00 -1.1591555159290362e-02 -4.4704861912288334e-02  -1.0347412468665426e-02 -2.3347044624440695e-03 -8.2710379846790017e-03  -1.0989908901828299e-02 -2.1987050747597501e-03 -1.2490363079586404e-02  -1.1769573326481127e-02 -2.6443400623945381e-03 -1.8889371366423092e-02  -1.2432847080337957e-02 -3.6096156539794253e-03 -2.8633157811010525e-02  -1.1059150313843823e-02 -4.9614027499337854e-03 -4.2485060631579676e-02  -6.3436390075700547e-03 -6.3436390075700616e-03 -5.4824749159734912e-02  0.0000000000000000e+00 -6.9205099668675314e-03 -5.8657283847705091e-02  -1.0650774589009638e-02 0.0000000000000000e+00 -8.8803965012108268e-03  -1.1459626213765702e-02 0.0000000000000000e+00 -1.3129450103295614e-02  -1.2204565012069585e-02 0.0000000000000000e+00 -1.9795751780475025e-02  -1.2776543179315482e-02 0.0000000000000000e+00 -3.0091463811110958e-02  -1.1591555159290357e-02 0.0000000000000000e+00 -4.4704861912288327e-02  -6.9205099668675279e-03 0.0000000000000000e+00 -5.8657283847705091e-02  0.0000000000000000e+00 0.0000000000000000e+00 -6.4186387079794308e-02  -3.1362231055915503e-03 -3.1362231055915551e-03 2.8449469333526782e-03  -3.2618202692282620e-03 -3.2227874009879615e-03 1.2636183149228303e-04  -3.2570801750545940e-03 -3.6791935765448946e-03 -2.4367410873921743e-03  -2.9867612938317399e-03 -4.4019342906389484e-03 -4.8745177364015917e-03  -2.3519994410422075e-03 -5.2577781376435513e-03 -7.0147594488862344e-03  -1.3643414345289940e-03 -5.9488612114369857e-03 -8.5786737757654555e-03  0.0000000000000000e+00 -6.1176007861819259e-03 -9.2710989919408768e-03  -3.2227874009879767e-03 -3.2618202692282538e-03 1.2636183149229368e-04  -3.3098240143646530e-03 -3.3098240143646538e-03 -2.7899832979254345e-03  -3.2362809410588665e-03 -3.8112684540956678e-03 -5.7482374683084135e-03  -2.9286342024556272e-03 -4.6624993957290880e-03 -8.7852241295716723e-03  -2.2786351807659064e-03 -5.7130488079919937e-03 -1.1613911353653120e-02  -1.2932765696574040e-03 -6.5638873767864224e-03 -1.3719112374649569e-02  0.0000000000000000e+00 -6.8826983921402443e-03 -1.4611708823472794e-02  -3.6791935765448968e-03 -3.2570801750545888e-03 -2.4367410873921786e-03  -3.8112684540956652e-03 -3.2362809410588665e-03 -5.7482374683084135e-03  -3.8382318619648967e-03 -3.8382318619648976e-03 -9.3942427102712868e-03  -3.6395330587902807e-03 -4.9376547617764315e-03 -1.3579236580512096e-02  -2.9201710301369919e-03 -6.4094384617149822e-03 -1.7890348504112693e-02  -1.6560944418708317e-03 -7.5662729476781787e-03 -2.1162960824701257e-02  0.0000000000000000e+00 -7.8381523531948823e-03 -2.2460233100677757e-02  -4.4019342906389492e-03 -2.9867612938317377e-03 -4.8745177364015796e-03  -4.6624993957290741e-03 -2.9286342024556320e-03 -8.7852241295716671e-03  -4.9376547617764272e-03 -3.6395330587902825e-03 -1.3579236580512100e-02  -5.1825190164875535e-03 -5.1825190164875544e-03 -2.0012486120207541e-02  -4.4280406452175550e-03 -7.5172841153637584e-03 -2.7811163648350762e-02  -2.4954244363251626e-03 -9.2806688462128435e-03 -3.3737908417602935e-02  0.0000000000000000e+00 -9.3681676645520282e-03 -3.5640069157578162e-02  -5.2577781376435487e-03 -2.3519994410422002e-03 -7.0147594488862361e-03  -5.7130488079919859e