<?xml version="1.0"?>
<VTKFile type="UnstructuredGrid"  version="0.1"  >
<UnstructuredGrid>
<Piece  NumberOfPoints="729" NumberOfCells="3072">
<Points>
<DataArray  type="Float64"  NumberOfComponents="3"  format="ascii">0 0 0  0.125 0 0  0.25 0 0  0.375 0 0  0.5 0 0  0.625 0 0  0.75 0 0  0.875 0 0  1 0 0  0 0.125 0  0.125 0.125 0  0.25 0.125 0  0.375 0.125 0  0.5 0.125 0  0.625 0.125 0  0.75 0.125 0  0.875 0.125 0  1 0.125 0  0 0.25 0  0.125 0.25 0  0.25 0.25 0  0.375 0.25 0  0.5 0.25 0  0.625 0.25 0  0.75 0.25 0  0.875 0.25 0  1 0.25 0  0 0.375 0  0.125 0.375 0  0.25 0.375 0  0.375 0.375 0  0.5 0.375 0  0.625 0.375 0  0.75 0.375 0  0.875 0.375 0  1 0.375 0  0 0.5 0  0.125 0.5 0  0.25 0.5 0  0.375 0.5 0  0.5 0.5 0  0.625 0.5 0  0.75 0.5 0  0.875 0.5 0  1 0.5 0  0 0.625 0  0.125 0.625 0  0.25 0.625 0  0.375 0.625 0  0.5 0.625 0  0.625 0.625 0  0.75 0.625 0  0.875 0.625 0  1 0.625 0  0 0.75 0  0.125 0.75 0  0.25 0.75 0  0.375 0.75 0  0.5 0.75 0  0.625 0.75 0  0.75 0.75 0  0.875 0.75 0  1 0.75 0  0 0.875 0  0.125 0.875 0  0.25 0.875 0  0.375 0.875 0  0.5 0.875 0  0.625 0.875 0  0.75 0.875 0  0.875 0.875 0  1 0.875 0  0 1 0  0.125 1 0  0.25 1 0  0.375 1 0  0.5 1 0  0.625 1 0  0.75 1 0  0.875 1 0  1 1 0  0 0 0.125  0.125 0 0.125  0.25 0 0.125  0.375 0 0.125  0.5 0 0.125  0.625 0 0.125  0.75 0 0.125  0.875 0 0.125  1 0 0.125  0 0.125 0.125  0.125 0.125 0.125  0.25 0.125 0.125  0.375 0.125 0.125  0.5 0.125 0.125  0.625 0.125 0.125  0.75 0.125 0.125  0.875 0.125 0.125  1 0.125 0.125  0 0.25 0.125  0.125 0.25 0.125  0.25 0.25 0.125  0.375 0.25 0.125  0.5 0.25 0.125  0.625 0.25 0.125  0.75 0.25 0.125  0.875 0.25 0.125  1 0.25 0.125  0 0.375 0.125  0.125 0.375 0.125  0.25 0.375 0.125  0.375 0.375 0.125  0.5 0.375 0.125  0.625 0.375 0.125  0.75 0.375 0.125  0.875 0.375 0.125  1 0.375 0.125  0 0.5 0.125  0.125 0.5 0.125  0.25 0.5 0.125  0.375 0.5 0.125  0.5 0.5 0.125  0.625 0.5 0.125  0.75 0.5 0.125  0.875 0.5 0.125  1 0.5 0.125  0 0.625 0.125  0.125 0.625 0.125  0.25 0.625 0.125  0.375 0.625 0.125  0.5 0.625 0.125  0.625 0.625 0.125  0.75 0.625 0.125  0.875 0.625 0.125  1 0.625 0.125  0 0.75 0.125  0.125 0.75 0.125  0.25 0.75 0.125  0.375 0.75 0.125  0.5 0.75 0.125  0.625 0.75 0.125  0.75 0.75 0.125  0.875 0.75 0.125  1 0.75 0.125  0 0.875 0.125  0.125 0.875 0.125  0.25 0.875 0.125  0.375 0.875 0.125  0.5 0.875 0.125  0.625 0.875 0.125  0.75 0.875 0.125  0.875 0.875 0.125  1 0.875 0.125  0 1 0.125  0.125 1 0.125  0.25 1 0.125  0.375 1 0.125  0.5 1 0.125  0.625 1 0.125  0.75 1 0.125  0.875 1 0.125  1 1 0.125  0 0 0.25  0.125 0 0.25  0.25 0 0.25  0.375 0 0.25  0.5 0 0.25  0.625 0 0.25  0.75 0 0.25  0.875 0 0.25  1 0 0.25  0 0.125 0.25  0.125 0.125 0.25  0.25 0.125 0.25  0.375 0.125 0.25  0.5 0.125 0.25  0.625 0.125 0.25  0.75 0.125 0.25  0.875 0.125 0.25  1 0.125 0.25  0 0.25 0.25  0.125 0.25 0.25  0.25 0.25 0.25  0.375 0.25 0.25  0.5 0.25 0.25  0.625 0.25 0.25  0.75 0.25 0.25  0.875 0.25 0.25  1 0.25 0.25  0 0.375 0.25  0.125 0.375 0.25  0.25 0.375 0.25  0.375 0.375 0.25  0.5 0.375 0.25  0.625 0.375 0.25  0.75 0.375 0.25  0.875 0.375 0.25  1 0.375 0.25  0 0.5 0.25  0.125 0.5 0.25  0.25 0.5 0.25  0.375 0.5 0.25  0.5 0.5 0.25  0.625 0.5 0.25  0.75 0.5 0.25  0.875 0.5 0.25  1 0.5 0.25  0 0.625 0.25  0.125 0.625 0.25  0.25 0.625 0.25  0.375 0.625 0.25  0.5 0.625 0.25  0.625 0.625 0.25  0.75 0.625 0.25  0.875 0.625 0.25  1 0.625 0.25  0 0.75 0.25  0.125 0.75 0.25  0.25 0.75 0.25  0.375 0.75 0.25  0.5 0.75 0.25  0.625 0.75 0.25  0.75 0.75 0.25  0.875 0.75 0.25  1 0.75 0.25  0 0.875 0.25  0.125 0.875 0.25  0.25 0.875 0.25  0.375 0.875 0.25  0.5 0.875 0.25  0.625 0.875 0.25  0.75 0.875 0.25  0.875 0.875 0.25  1 0.875 0.25  0 1 0.25  0.125 1 0.25  0.25 1 0.25  0.375 1 0.25  0.5 1 0.25  0.625 1 0.25  0.75 1 0.25  0.875 1 0.25  1 1 0.25  0 0 0.375  0.125 0 0.375  0.25 0 0.375  0.375 0 0.375  0.5 0 0.375  0.625 0 0.375  0.75 0 0.375  0.875 0 0.375  1 0 0.375  0 0.125 0.375  0.125 0.125 0.375  0.25 0.125 0.375  0.375 0.125 0.375  0.5 0.125 0.375  0.625 0.125 0.375  0.75 0.125 0.375  0.875 0.125 0.375  1 0.125 0.375  0 0.25 0.375  0.125 0.25 0.375  0.25 0.25 0.375  0.375 0.25 0.375  0.5 0.25 0.375  0.625 0.25 0.375  0.75 0.25 0.375  0.875 0.25 0.375  1 0.25 0.375  0 0.375 0.375  0.125 0.375 0.375  0.25 0.375 0.375  0.375 0.375 0.375  0.5 0.375 0.375  0.625 0.375 0.375  0.75 0.375 0.375  0.875 0.375 0.375  1 0.375 0.375  0 0.5 0.375  0.125 0.5 0.375  0.25 0.5 0.375  0.375 0.5 0.375  0.5 0.5 0.375  0.625 0.5 0.375  0.75 0.5 0.375  0.875 0.5 0.375  1 0.5 0.375  0 0.625 0.375  0.125 0.625 0.375  0.25 0.625 0.375  0.375 0.625 0.375  0.5 0.625 0.375  0.625 0.625 0.375  0.75 0.625 0.375  0.875 0.625 0.375  1 0.625 0.375  0 0.75 0.375  0.125 0.75 0.375  0.25 0.75 0.375  0.375 0.75 0.375  0.5 0.75 0.375  0.625 0.75 0.375  0.75 0.75 0.375  0.875 0.75 0.375  1 0.75 0.375  0 0.875 0.375  0.125 0.875 0.375  0.25 0.875 0.375  0.375 0.875 0.375  0.5 0.875 0.375  0.625 0.875 0.375  0.75 0.875 0.375  0.875 0.875 0.375  1 0.875 0.375  0 1 0.375  0.125 1 0.375  0.25 1 0.375  0.375 1 0.375  0.5 1 0.375  0.625 1 0.375  0.75 1 0.375  0.875 1 0.375  1 1 0.375  0 0 0.5  0.125 0 0.5  0.25 0 0.5  0.375 0 0.5  0.5 0 0.5  0.625 0 0.5  0.75 0 0.5  0.875 0 0.5  1 0 0.5  0 0.125 0.5  0.125 0.125 0.5  0.25 0.125 0.5  0.375 0.125 0.5  0.5 0.125 0.5  0.625 0.125 0.5  0.75 0.125 0.5  0.875 0.125 0.5  1 0.125 0.5  0 0.25 0.5  0.125 0.25 0.5  0.25 0.25 0.5  0.375 0.25 0.5  0.5 0.25 0.5  0.625 0.25 0.5  0.75 0.25 0.5  0.875 0.25 0.5  1 0.25 0.5  0 0.375 0.5  0.125 0.375 0.5  0.25 0.375 0.5  0.375 0.375 0.5  0.5 0.375 0.5  0.625 0.375 0.5  0.75 0.375 0.5  0.875 0.375 0.5  1 0.375 0.5  0 0.5 0.5  0.125 0.5 0.5  0.25 0.5 0.5  0.375 0.5 0.5  0.5 0.5 0.5  0.625 0.5 0.5  0.75 0.5 0.5  0.875 0.5 0.5  1 0.5 0.5  0 0.625 0.5  0.125 0.625 0.5  0.25 0.625 0.5  0.375 0.625 0.5  0.5 0.625 0.5  0.625 0.625 0.5  0.75 0.625 0.5  0.875 0.625 0.5  1 0.625 0.5  0 0.75 0.5  0.125 0.75 0.5  0.25 0.75 0.5  0.375 0.75 0.5  0.5 0.75 0.5  0.625 0.75 0.5  0.75 0.75 0.5  0.875 0.75 0.5  1 0.75 0.5  0 0.875 0.5  0.125 0.875 0.5  0.25 0.875 0.5  0.375 0.875 0.5  0.5 0.875 0.5  0.625 0.875 0.5  0.75 0.875 0.5  0.875 0.875 0.5  1 0.875 0.5  0 1 0.5  0.125 1 0.5  0.25 1 0.5  0.375 1 0.5  0.5 1 0.5  0.625 1 0.5  0.75 1 0.5  0.875 1 0.5  1 1 0.5  0 0 0.625  0.125 0 0.625  0.25 0 0.625  0.375 0 0.625  0.5 0 0.625  0.625 0 0.625  0.75 0 0.625  0.875 0 0.625  1 0 0.625  0 0.125 0.625  0.125 0.125 0.625  0.25 0.125 0.625  0.375 0.125 0.625  0.5 0.125 0.625  0.625 0.125 0.625  0.75 0.125 0.625  0.875 0.125 0.625  1 0.125 0.625  0 0.25 0.625  0.125 0.25 0.625  0.25 0.25 0.625  0.375 0.25 0.625  0.5 0.25 0.625  0.625 0.25 0.625  0.75 0.25 0.625  0.875 0.25 0.625  1 0.25 0.625  0 0.375 0.625  0.125 0.375 0.625  0.25 0.375 0.625  0.375 0.375 0.625  0.5 0.375 0.625  0.625 0.375 0.625  0.75 0.375 0.625  0.875 0.375 0.625  1 0.375 0.625  0 0.5 0.625  0.125 0.5 0.625  0.25 0.5 0.625  0.375 0.5 0.625  0.5 0.5 0.625  0.625 0.5 0.625  0.75 0.5 0.625  0.875 0.5 0.625  1 0.5 0.625  0 0.625 0.625  0.125 0.625 0.625  0.25 0.625 0.625  0.375 0.625 0.625  0.5 0.625 0.625  0.625 0.625 0.625  0.75 0.625 0.625  0.875 0.625 0.625  1 0.625 0.625  0 0.75 0.625  0.125 0.75 0.625  0.25 0.75 0.625  0.375 0.75 0.625  0.5 0.75 0.625  0.625 0.75 0.625  0.75 0.75 0.625  0.875 0.75 0.625  1 0.75 0.625  0 0.875 0.625  0.125 0.875 0.625  0.25 0.875 0.625  0.375 0.875 0.625  0.5 0.875 0.625  0.625 0.875 0.625  0.75 0.875 0.625  0.875 0.875 0.625  1 0.875 0.625  0 1 0.625  0.125 1 0.625  0.25 1 0.625  0.375 1 0.625  0.5 1 0.625  0.625 1 0.625  0.75 1 0.625  0.875 1 0.625  1 1 0.625  0 0 0.75  0.125 0 0.75  0.25 0 0.75  0.375 0 0.75  0.5 0 0.75  0.625 0 0.75  0.75 0 0.75  0.875 0 0.75  1 0 0.75  0 0.125 0.75  0.125 0.125 0.75  0.25 0.125 0.75  0.375 0.125 0.75  0.5 0.125 0.75  0.625 0.125 0.75  0.75 0.125 0.75  0.875 0.125 0.75  1 0.125 0.75  0 0.25 0.75  0.125 0.25 0.75  0.25 0.25 0.75  0.375 0.25 0.75  0.5 0.25 0.75  0.625 0.25 0.75  0.75 0.25 0.75  0.875 0.25 0.75  1 0.25 0.75  0 0.375 0.75  0.125 0.375 0.75  0.25 0.375 0.75  0.375 0.375 0.75  0.5 0.375 0.75  0.625 0.375 0.75  0.75 0.375 0.75  0.875 0.375 0.75  1 0.375 0.75  0 0.5 0.75  0.125 0.5 0.75  0.25 0.5 0.75  0.375 0.5 0.75  0.5 0.5 0.75  0.625 0.5 0.75  0.75 0.5 0.75  0.875 0.5 0.75  1 0.5 0.75  0 0.625 0.75  0.125 0.625 0.75  0.25 0.625 0.75  0.375 0.625 0.75  0.5 0.625 0.75  0.625 0.625 0.75  0.75 0.625 0.75  0.875 0.625 0.75  1 0.625 0.75  0 0.75 0.75  0.125 0.75 0.75  0.25 0.75 0.75  0.375 0.75 0.75  0.5 0.75 0.75  0.625 0.75 0.75  0.75 0.75 0.75  0.875 0.75 0.75  1 0.75 0.75  0 0.875 0.75  0.125 0.875 0.75  0.25 0.875 0.75  0.375 0.875 0.75  0.5 0.875 0.75  0.625 0.875 0.75  0.75 0.875 0.75  0.875 0.875 0.75  1 0.875 0.75  0 1 0.75  0.125 1 0.75  0.25 1 0.75  0.375 1 0.75  0.5 1 0.75  0.625 1 0.75  0.75 1 0.75  0.875 1 0.75  1 1 0.75  0 0 0.875  0.125 0 0.875  0.25 0 0.875  0.375 0 0.875  0.5 0 0.875  0.625 0 0.875  0.75 0 0.875  0.875 0 0.875  1 0 0.875  0 0.125 0.875  0.125 0.125 0.875  0.25 0.125 0.875  0.375 0.125 0.875  0.5 0.125 0.875  0.625 0.125 0.875  0.75 0.125 0.875  0.875 0.125 0.875  1 0.125 0.875  0 0.25 0.875  0.125 0.25 0.875  0.25 0.25 0.875  0.375 0.25 0.875  0.5 0.25 0.875  0.625 0.25 0.875  0.75 0.25 0.875  0.875 0.25 0.875  1 0.25 0.875  0 0.375 0.875  0.125 0.375 0.875  0.25 0.375 0.875  0.375 0.375 0.875  0.5 0.375 0.875  0.625 0.375 0.875  0.75 0.375 0.875  0.875 0.375 0.875  1 0.375 0.875  0 0.5 0.875  0.125 0.5 0.875  0.25 0.5 0.875  0.375 0.5 0.875  0.5 0.5 0.875  0.625 0.5 0.875  0.75 0.5 0.875  0.875 0.5 0.875  1 0.5 0.875  0 0.625 0.875  0.125 0.625 0.875  0.25 0.625 0.875  0.375 0.625 0.875  0.5 0.625 0.875  0.625 0.625 0.875  0.75 0.625 0.875  0.875 0.625 0.875  1 0.625 0.875  0 0.75 0.875  0.125 0.75 0.875  0.25 0.75 0.875  0.375 0.75 0.875  0.5 0.75 0.875  0.625 0.75 0.875  0.75 0.75 0.875  0.875 0.75 0.875  1 0.75 0.875  0 0.875 0.875  0.125 0.875 0.875  0.25 0.875 0.875  0.375 0.875 0.875  0.5 0.875 0.875  0.625 0.875 0.875  0.75 0.875 0.875  0.
[...]
<PointData  Vectors="f_25"> 
<DataArray  type="Float64"  Name="f_25"  NumberOfComponents="3" format="ascii">-4.8612192464612597e-02 -4.8612192464612611e-02 0.0000000000000000e+00  -4.8698511809304373e-02 -4.8833636191577684e-02 0.0000000000000000e+00  -4.7755101306023291e-02 -5.0836259519706731e-02 0.0000000000000000e+00  -4.5060748809399712e-02 -5.4426690330920131e-02 0.0000000000000000e+00  -4.0123311773931809e-02 -5.8985695703420209e-02 0.0000000000000000e+00  -3.2762859618783176e-02 -6.3732099044508883e-02 0.0000000000000000e+00  -2.3176207023502746e-02 -6.7836449189103851e-02 0.0000000000000000e+00  -1.1960185651971950e-02 -7.0521165567725488e-02 0.0000000000000000e+00  0.0000000000000000e+00 -7.1093926577604688e-02 0.0000000000000000e+00  -4.8833636191577670e-02 -4.8698511809304373e-02 0.0000000000000000e+00  -4.8307933654337894e-02 -4.8307933654337908e-02 0.0000000000000000e+00  -4.6707521567052400e-02 -5.0142658468589889e-02 0.0000000000000000e+00  -4.3495796326782014e-02 -5.3788060594111876e-02 0.0000000000000000e+00  -3.8329944667119011e-02 -5.8532401594502473e-02 0.0000000000000000e+00  -3.1077182422818775e-02 -6.3525042290418707e-02 0.0000000000000000e+00  -2.1894661692290988e-02 -6.7879008130381308e-02 0.0000000000000000e+00  -1.1274994527152244e-02 -7.0780889144058903e-02 0.0000000000000000e+00  0.0000000000000000e+00 -7.1623359089081073e-02 0.0000000000000000e+00  -5.0836259519706717e-02 -4.7755101306023305e-02 0.0000000000000000e+00  -5.0142658468589875e-02 -4.6707521567052414e-02 0.0000000000000000e+00  -4.8352348106576522e-02 -4.8352348106576529e-02 0.0000000000000000e+00  -4.4928930429404414e-02 -5.1987685090996535e-02 0.0000000000000000e+00  -3.9539100988176992e-02 -5.6824448057506173e-02 0.0000000000000000e+00  -3.2032778359726240e-02 -6.1984267598965227e-02 0.0000000000000000e+00  -2.2542127462405779e-02 -6.6544842625348100e-02 0.0000000000000000e+00  -1.1573341711309726e-02 -6.9643924049156883e-02 0.0000000000000000e+00  0.0000000000000000e+00 -7.0650788006461643e-02 0.0000000000000000e+00  -5.4426690330920124e-02 -4.5060748809399725e-02 0.0000000000000000e+00  -5.3788060594111863e-02 -4.3495796326782014e-02 0.0000000000000000e+00  -5.1987685090996535e-02 -4.4928930429404414e-02 0.0000000000000000e+00  -4.8483098208721737e-02 -4.8483098208721744e-02 0.0000000000000000e+00  -4.2867179056646013e-02 -5.3317923625051694e-02 0.0000000000000000e+00  -3.4895182381030426e-02 -5.8555453846347638e-02 0.0000000000000000e+00  -2.4642502441575617e-02 -6.3257366495638567e-02 0.0000000000000000e+00  -1.2665707569454390e-02 -6.6505415394087955e-02 0.0000000000000000e+00  0.0000000000000000e+00 -6.7604424913650180e-02 0.0000000000000000e+00  -5.8985695703420216e-02 -4.0123311773931809e-02 0.0000000000000000e+00  -5.8532401594502466e-02 -3.8329944667118997e-02 0.0000000000000000e+00  -5.6824448057506173e-02 -3.9539100988176999e-02 0.0000000000000000e+00  -5.3317923625051701e-02 -4.2867179056646013e-02 0.0000000000000000e+00  -4.7502893519487763e-02 -4.7502893519487763e-02 0.0000000000000000e+00  -3.8978029046454837e-02 -5.2612841725671572e-02 0.0000000000000000e+00  -2.7709742352957846e-02 -5.7280200319258755e-02 0.0000000000000000e+00  -1.4306039938848982e-02 -6.0558249528549379e-02 0.0000000000000000e+00  0.0000000000000000e+00 -6.1696007743436442e-02 0.0000000000000000e+00  -6.3732099044508855e-02 -3.2762859618783169e-02 0.0000000000000000e+00  -6.3525042290418707e-02 -3.1077182422818761e-02 0.0000000000000000e+00  -6.1984267598965227e-02 -3.2032778359726233e-02 0.0000000000000000e+00  -5.8555453846347638e-02 -3.4895182381030426e-02 0.0000000000000000e+00  -5.2612841725671579e-02 -3.8978029046454851e-02 0.0000000000000000e+00  -4.3561705485049090e-02 -4.3561705485049090e-02 0.0000000000000000e+00  -3.1208589979188454e-02 -4.7824660774215176e-02 0.0000000000000000e+00  -1.6203284034957847e-02 -5.0876256984347362e-02 0.0000000000000000e+00  0.0000000000000000e+00 -5.1969555498391939e-02 0.0000000000000000e+00  -6.7836449189103837e-02 -2.3176207023502735e-02 0.0000000000000000e+00  -6.7879008130381308e-02 -2.1894661692290984e-02 0.0000000000000000e+00  -6.6544842625348100e-02 -2.2542127462405775e-02 0.0000000000000000e+00  -6.3257366495638567e-02 -2.4642502441575613e-02 0.0000000000000000e+00  -5.7280200319258755e-02 -2.7709742352957853e-02 0.0000000000000000e+00  -4.7824660774215183e-02 -3.1208589979188458e-02 0.0000000000000000e+00  -3.4512182564497340e-02 -3.4512182564497340e-02 0.0000000000000000e+00  -1.8006498827774779e-02 -3.6922333154205941e-02 0.0000000000000000e+00  0.0000000000000000e+00 -3.7824063624948417e-02 0.0000000000000000e+00  -7.0521165567725488e-02 -1.1960185651971952e-02 0.0000000000000000e+00  -7.0780889144058903e-02 -1.1274994527152239e-02 0.0000000000000000e+00  -6.9643924049156883e-02 -1.1573341711309732e-02 0.0000000000000000e+00  -6.6505415394087955e-02 -1.2665707569454400e-02 0.0000000000000000e+00  -6.0558249528549365e-02 -1.4306039938848976e-02 0.0000000000000000e+00  -5.0876256984347362e-02 -1.6203284034957851e-02 0.0000000000000000e+00  -3.6922333154205934e-02 -1.8006498827774779e-02 0.0000000000000000e+00  -1.9351551262676916e-02 -1.9351551262676913e-02 0.0000000000000000e+00  0.0000000000000000e+00 -1.9878477273253922e-02 0.0000000000000000e+00  -7.1093926577604688e-02 0.0000000000000000e+00 0.0000000000000000e+00  -7.1623359089081073e-02 0.0000000000000000e+00 0.0000000000000000e+00  -7.0650788006461643e-02 0.0000000000000000e+00 0.0000000000000000e+00  -6.7604424913650180e-02 0.0000000000000000e+00 0.0000000000000000e+00  -6.1696007743436442e-02 0.0000000000000000e+00 0.0000000000000000e+00  -5.1969555498391946e-02 0.0000000000000000e+00 0.0000000000000000e+00  -3.7824063624948411e-02 0.0000000000000000e+00 0.0000000000000000e+00  -1.9878477273253928e-02 0.0000000000000000e+00 0.0000000000000000e+00  0.0000000000000000e+00 0.0000000000000000e+00 0.0000000000000000e+00  -4.6995260983890105e-02 -4.6995260983890105e-02 2.9036937429000116e-03  -4.7486523562254121e-02 -4.7064054187560385e-02 9.6850931038317532e-04  -4.6873351970504455e-02 -4.9024314124398095e-02 -7.7746116133419179e-04  -4.4475930613822781e-02 -5.2575015929805603e-02 -2.4728348026550827e-03  -3.9807356873618645e-02 -5.7096134395959862e-02 -4.0890629260490500e-03  -3.2677599188772381e-02 -6.1820204500320164e-02 -5.5368536168081822e-03  -2.3261338085660003e-02 -6.5929579776295544e-02 -6.6887138684041166e-03  -1.2117352628969364e-02 -6.8650334501137875e-02 -7.4188119781815418e-03  0.0000000000000000e+00 -6.9216140558866907e-02 -7.6349668127331212e-03  -4.7064054187560378e-02 -4.7486523562254135e-02 9.6850931038317163e-04  -4.7117687814136479e-02 -4.7117687814136493e-02 -9.7806971320074610e-04  -4.5803358963385471e-02 -4.8906343342512697e-02 -2.7779936704753201e-03  -4.2815141062627439e-02 -5.2520095808167216e-02 -4.5690612144625858e-03  -3.7862357465289681e-02 -5.7248737969148526e-02 -6.3045687433294934e-03  -3.0817764960486049e-02 -6.2242490912702564e-02 -7.8738871761412019e-03  -2.1819876718537422e-02 -6.6615465408598112e-02 -9.1236876601966197e-03  -1.1318600764402329e-02 -6.9561590941980778e-02 -9.8970178612858666e-03  0.0000000000000000e+00 -7.0541763407562921e-02 -1.0071528272273277e-02  -4.9024314124398075e-02 -4.6873351970504455e-02 -7.7746116133419179e-04  -4.8906343342512683e-02 -4.5803358963385478e-02 -2.7779936704753179e-03  -4.7421600075953585e-02 -4.7421600075953585e-02 -4.7292874936210394e-03  -4.4230044905865198e-02 -5.1045246267405121e-02 -6.7782573104722557e-03  -3.9060568118934470e-02 -5.5891114020282601e-02 -8.8426955136290362e-03  -3.1774177538214168e-02 -6.1078960443451819e-02 -1.0772380160238680e-02  -2.2482090303047271e-02 -6.5680417906492108e-02 -1.2349070194148862e-02  -1.1637618518526915e-02 -6.8835628846175820e-02 -1.3335444785931032e-02  0.0000000000000000e+00 -6.9983241686541159e-02 -1.3546112192524060e-02  -5.2575015929805589e-02 -4.4475930613822781e-02 -2.4728348026550697e-03  -5.2520095808167203e-02 -4.2815141062627439e-02 -4.5690612144625893e-03  -5.1045246267405107e-02 -4.4230044905865205e-02 -6.7782573104722523e-03  -4.7803707616402645e-02 -4.7803707616402645e-02 -9.2246165690679626e-03  -4.2440974558584976e-02 -5.2687729284206147e-02 -1.1799627049424173e-02  -3.4717543707933514e-02 -5.7998538794730062e-02 -1.4308212053174722e-02  -2.4676966336409180e-02 -6.2782834642652385e-02 -1.6434799275477356e-02  -1.2804070756759354e-02 -6.6109261734016017e-02 -1.7809871211983186e-02  0.0000000000000000e+00 -6.7322875779235875e-02 -1.8157521402156873e-02  -5.7096134395959848e-02 -3.9807356873618652e-02 -4.0890629260490422e-03  -5.7248737969148512e-02 -3.7862357465289674e-02 -6.3045687433294943e-03  -5.5891114020282615e-02 -3.9060568118934477e-02 -8.8426955136290362e-03  -5.2687729284206154e-02 -4.2440974558584983e-02 -1.1799627049424171e-02  -4.7174839081014587e-02 -4.7174839081014601e-02 -1.5043686981325778e-02  -3.8943111431533797e-02 -5.2419388902104354e-02 -1.8341138346542479e-02  -2.7905477160438542e-02 -5.7233120349658162e-02 -2.1251798577022401e-02  -1.4566487155664394e-02 -6.0633660839215037e-02 -2.3211073234786172e-02  0.0000000000000000e+00 -6.1869157047180198e-02 -2.3815959534345382e-02  -6.1820204500320164e-02 -3.2677599188772388e-02 -5.5368536168081900e-03  -6.2242490912702557e-02 -3.0817764960486056e-02 -7.8738871761412036e-03  -6.1078960443451812e-02 -3.1774177538214175e-02 -1.0772380160238685e-02  -5.7998538794730055e-02 -3.4717543707933521e-02 -1.4308212053174719e-02  -5.2419388902104361e-02 -3.8943111431533804e-02 -1.8341138346542472e-02  -4.3723471463377919e-02 -4.3723471463377919e-02 -2.2606595830487911e-02  -3.1629753726045151e-02 -4.8206821718331169e-02 -2.6511215052030059e-02  -1.6634881493050500e-02 -5.1446404969426235e-02 -2.9226175355102232e-02  0.0000000000000000e+00 -5.2665074461482449e-02 -3.0197408058296106e-02  -6.5929579776295544e-02 -2.3261338085660003e-02 -6.6887138684041166e-03  -6.6615465408598112e-02 -2.1819876718537422e-02 -9.1236876601966162e-03  -6.5680417906492095e-02 -2.2482090303047268e-02 -1.2349070194148862e-02  -6.2782834642652371e-02 -2.4676966336409169e-02 -1.6434799275477356e-02  -5.7233120349658169e-02 -2.7905477160438549e-02 -2.1251798577022397e-02  -4.8206821718331176e-02 -3.1629753726045158e-02 -2.6511215052030059e-02  -3.5196510216487224e-02 -3.5196510216487231e-02 -3.1473872556356586e-02  -1.8642528247386849e-02 -3.7845807244857955e-02 -3.5006309809632707e-02  0.0000000000000000e+00 -3.8935664691123049e-02 -3.6381705159232718e-02  -6.8650334501137875e-02 -1.2117352628969374e-02 -7.4188119781815323e-03  -6.9561590941980778e-02 -1.1318600764402329e-02 -9.8970178612858579e-03  -6.8835628846175834e-02 -1.1637618518526915e-02 -1.3335444785931029e-02  -6.6109261734016017e-02 -1.2804070756759356e-02 -1.7809871211983182e-02  -6.0633660839215037e-02 -1.4566487155664389e-02 -2.3211073234786168e-02  -5.1446404969426228e-02 -1.6634881493050500e-02 -2.9226175355102229e-02  -3.7845807244857949e-02 -1.8642528247386849e-02 -3.5006309809632701e-02  -2.0178228972767099e-02 -2.0178228972767102e-02 -3.9197114987252597e-02  0.0000000000000000e+00 -2.0890381309004856e-02 -4.0908646083588747e-02  -6.9216140558866907e-02 0.0000000000000000e+00 -7.6349668127331204e-03  -7.0541763407562935e-02 0.0000000000000000e+00 -1.0071528272273282e-02  -6.9983241686541159e-02 0.0000000000000000e+00 -1.3546112192524058e-02  -6.7322875779235861e-02 0.0000000000000000e+00 -1.8157521402156877e-02  -6.1869157047180205e-02 0.0000000000000000e+00 -2.3815959534345382e-02  -5.2665074461482442e-02 0.0000000000000000e+00 -3.0197408058296089e-02  -3.8935664691123049e-02 0.0000000000000000e+00 -3.6381705159232718e-02  -2.0890381309004859e-02 0.0000000000000000e+00 -4.0908646083588754e-02  0.0000000000000000e+00 0.0000000000000000e+00 -4.2993924532748078e-02  -4.4274998831676009e-02 -4.4274998831676016e-02 5.5586238430401008e-03  -4.4878725720983066e-02 -4.4411849807032486e-02 1.9774409814666341e-03  -4.4538654418311716e-02 -4.6389494121502325e-02 -1.4478807429403103e-03  -4.2488396086803007e-02 -4.9970458410993852e-02 -4.7702846941025780e-03  -3.8219515855469968e-02 -5.4539607943344066e-02 -7.9317468651139353e-03  -3.1516866020919451e-02 -5.9334620447718700e-02 -1.0765772014765234e-02  -2.2526308123659754e-02 -6.3530495533290751e-02 -1.3030116297013415e-02  -1.1779019702878143e-02 -6.6341566644206415e-02 -1.4497006559932595e-02  0.0000000000000000e+00 -6.6992323101154383e-02 -1.5102601906372115e-02  -4.4411849807032486e-02 -4.4878725720983066e-02 1.9774409814666376e-03  -4.4564456283890691e-02 -4.4564456283890698e-02 -1.5294644053593669e-03  -4.3534826024765015e-02 -4.6394117851114094e-02 -5.0820885583633194e-03  -4.0893341218310203e-02 -5.0073802259639248e-02 -8.6176880905451444e-03  -3.6330110643303111e-02 -5.4894944428152292e-02 -1.2036497629296400e-02  -2.9694460158402835e-02 -6.0007627327422333e-02 -1.5131568904741903e-02  -2.1100796809944814e-02 -6.4508150757761937e-02 -1.7608624423673613e-02  -1.0980362098025548e-02 -6.7564092696090788e-02 -1.9167039666723271e-02  0.0000000000000000e+00 -6.8615911764549051e-02 -1.9581712764099632e-02  -4.6389494121502325e-02 -4.4538654418311709e-02 -1.4478807429403196e-03  -4.6394117851114081e-02 -4.3534826024765015e-02 -5.0820885583633202e-03  -4.5253570441474357e-02 -4.5253570441474357e-02 -8.9795735229711102e-03  -4.2454576745916926e-02 -4.9009116376958733e-02 -1.3044693238814235e-02  -3.7703885599814337e-02 -5.4026864976224075e-02 -1.7133313604613353e-02  -3.0823757019981409e-02 -5.9421322747946620e-02 -2.0963456910730448e-02  -2.1895226417608216e-02 -6.4225808900154280e-02 -2.4105947662073589e-02  -1.1364805900057957e-02 -6.7529727511637189e-02 -2.6098157909807497e-02  0.0000000000000000e+00 -6.8753346439429083e-02 -2.6609340708873011e-02  -4.9970458410993845e-02 -4.2488396086803007e-02 -4.7702846941025832e-03  -5.0073802259639241e-02 -4.0893341218310210e-02 -8.6176880905451461e-03  -4.9009116376958733e-02 -4.2454576745916919e-02 -1.3044693238814235e-02  -4.6244265398735142e-02 -4.6244265398735142e-02 -1.7918912466647365e-02  -4.1372186437315793e-02 -5.1415803990580697e-02 -2.3053574574762835e-02  -3.4072769136846474e-02 -5.7070070711410244e-02 -2.8077977322561919e-02  -2.4338203279525805e-02 -6.2183199585548951e-02 -3.2352835994110152e-02  -1.2663380957478002e-02 -6.5726967735849462e-02 -3.5138074907126934e-02  0.0000000000000000e+00 -6.7003821492188698e-02 -3.5924579115081109e-02  -5.4539607943344053e-02 -3.8219515855469968e-02 -7.9317468651139422e-03  -5.4894944428152292e-02 -3.6330110643303111e-02 -1.2036497629296412e-02  -5.4026864976224075e-02 -3.7703885599814350e-02 -1.7133313604613360e-02  -5.1415803990580697e-02 -4.1372186437315800e-02 -2.3053574574762835e-02  -4.6510745253782015e-02 -4.6510745253782022e-02 -2.9578083181114545e-02  -3.8750134892429483e-02 -5.2251915856154331e-02 -3.6263234118875852e-02  -2.7947897513982693e-02 -5.7548807599262203e-02 -4.2187959643662599e-02  -1.4637854133960593e-02 -6.1264472932081190e-02 -4.6183246753281969e-02  0.0000000000000000e+00 -6.2561710438390539e-02 -4.7467815785943224e-02  -5.9334620447718700e-02 -3.1516866020919458e-02 -1.0765772014765236e-02  -6.0007627327422326e-02 -2.9694460158402835e-02 -1.5131568904741903e-02  -5.9421322747946613e-02 -3.0823757019981420e-02 -2.0963456910730448e-02  -5.7070070711410237e-02 -3.4072769136846474e-02 -2.8077977322561915e-02  -5.2251915856154338e-02 -3.8750134892429483e-02 -3.6263234118875845e-02  -4.4108000568479772e-02 -4.4108000568479772e-02 -4.5029655803156488e-02  -3.2174328963570226e-02 -4.9178947460413971e-02 -5.3096085556723301e-02  -1.6992133088093896e-02 -5.2825069281288599e-02 -5.8685860443478989e-02  0.0000000000000000e+00 -5.4145635679976073e-02 -6.0680372569861488e-02  -6.3530495533290737e-02 -2.2526308123659758e-02 -1.3030116297013415e-02  -6.4508150757761937e-02 -2.1100796809944814e-02 -1.7608624423673613e-02  -6.4225808900154280e-02 -2.1895226417608219e-02 -2.4105947662073593e-02  -6.2183199585548951e-02 -2.4338203279525811e-02 -3.2352835994110145e-02  -5.7548807599262203e-02 -2.7947897513982696e-02 -4.2187959643662593e-02  -4.9178947460413971e-02 -3.2174328963570226e-02 -5.3096085556723294e-02  -3.6279542370162808e-02 -3.6279542370162801e-02 -6.3474529367393742e-02  -1.9314809310693092e-02 -3.9336426275428438e-02 -7.0827981830988054e-02  0.0000000000000000e+00 -4.0587380345568247e-02 -7.3643853563791564e-02  -6.6341566644206401e-02 -1.1779019702878151e-02 -1.4497006559932586e-02  -6.7564092696090788e-02 -1.0980362098025553e-02 -1.9167039666723274e-02  -6.7529727511637189e-02 -1.1364805900057952e-02 -2.6098157909807490e-02  -6.5726967735849462e-02 -1.2663380957477996e-02 -3.5138074907126927e-02  -6.1264472932081197e-02 -1.4637854133960588e-02 -4.6183246753281962e-02  -5.2825069281288592e-02 -1.6992133088093907e-02 -5.8685860443478982e-02  -3.9336426275428438e-02 -1.9314809310693095e-02 -7.0827981830988054e-02  -2.1110165480047745e-02 -2.1110165480047748e-02 -7.9631949158618459e-02  0.0000000000000000e+00 -2.1971341732130820e-02 -8.3195321822987528e-02  -6.6992323101154383e-02 0.0000000000000000e+00 -1.5102601906372106e-02  -6.8615911764549051e-02 0.0000000000000000e+00 -1.9581712764099632e-02  -6.8753346439429083e-02 0.0000000000000000e+00 -2.6609340708873011e-02  -6.7003821492188698e-02 0.0000000000000000e+00 -3.5924579115081103e-02  -6.2561710438390539e-02 0.0000000000000000e+00 -4.7467815785943224e-02  -5.4145635679976066e-02 0.0000000000000000e+00 -6.0680372569861488e-02  -4.0587380345568247e-02 0.0000000000000000e+00 -7.3643853563791564e-02  -2.1971341732130820e-02 0.0000000000000000e+00 -8.3195321822987528e-02  0.0000000000000000e+00 0.0000000000000000e+00 -8.7681040446138073e-02  -4.0074454460495838e-02 -4.0074454460495824e-02 8.2230330652680855e-03  -4.0800711965661540e-02 -4.0298703519984699e-02 3.1359498438313042e-03  -4.0705931745243305e-02 -4.2331773198014302e-02 -1.7572845059645888e-03  -3.9057644933768607e-02 -4.5933814810214732e-02 -6.5074096616619236e-03  -3.5331492989119202e-02 -5.0524484692522242e-02 -1.1020590119785486e-02  -2.9280059760308747e-02 -5.5366642408666539e-02 -1.5064872002178039e-02  -2.1011616605214837e-02 -5.9631556720802052e-02 -1.8299374287063384e-02  -1.1023666303758903e-02 -6.2518601001785842e-02 -2.0408464687510779e-02  0.0000000000000000e+00 -6.3235904335312482e-02 -2.1327466184062872e-02  -4.0298703519984699e-02 -4.0800711965661540e-02 3.1359498438313037e-03  -4.0589057106275896e-02 -4.0589057106275889e-02 -1.8991739141091546e-03  -3.9831837093234623e-02 -4.2513138526786280e-02 -7.0191183696844302e-03  -3.7620491812096542e-02 -4.6269448155918561e-02 -1.2140198304797943e-02  -3.3607543797080863e-02 -5.1180367706256662e-02 -1.7102787779914828e-02  -2.7602321755855613e-02 -5.6415878076100219e-02 -2.1607961334800096e-02  -1.9685873944327921e-02 -6.1052997255034623e-02 -2.5226901298639560e-02  -1.0268098723042348e-02 -6.4225499744678310e-02 -2.7528450459676407e-02  0.0000000000000000e+00 -6.5372103644759302e-02 -2.8208372244015168e-02  -4.2331773198014296e-02 -4.0705931745243305e-02 -1.7572845059645942e-03  -4.2513138526786273e-02 -3.9831837093234630e-02 -7.0191183696844310e-03  -4.1701585285942443e-02 -4.1701585285942457e-02 -1.2669637195576714e-02  -3.9407188795831889e-02 -4.5627048069830235e-02 -1.8600030357045088e-02  -3.5262577304043335e-02 -5.0858070050859586e-02 -2.4591938529723162e-02  -2.9013121160729200e-02 -5.6516830779269528e-02 -3.0234501783696577e-02  -2.0697117733180032e-02 -6.1580653272752271e-02 -3.4880286568340482e-02  -1.0764413599221916e-02 -6.5060073741344315e-02 -3.7845613914011013e-02  0.0000000000000000e+00 -6.6353207089299690e-02 -3.8665902863641480e-02  -4.5933814810214732e-02 -3.9057644933768607e-02 -6.5074096616619262e-03  -4.6269448155918554e-02 -3.7620491812096542e-02 -1.2140198304797945e-02  -4.5627048069830221e-02 -3.9407188795831882e-02 -1.8600030357045091e-02  -4.3503450755889100e-02 -4.3503450755889093e-02 -2.5770233516847960e-02  -3.9362465448873167e-02 -4.9086284480