<?xml version="1.0"?>
<VTKFile type="UnstructuredGrid"  version="0.1"  >
<UnstructuredGrid>
<Piece  NumberOfPoints="343" NumberOfCells="1296">
<Points>
<DataArray  type="Float64"  NumberOfComponents="3"  format="ascii">0 0 0  0.1666666666666667 0 0  0.3333333333333333 0 0  0.5 0 0  0.6666666666666666 0 0  0.8333333333333334 0 0  1 0 0  0 0.1666666666666667 0  0.1666666666666667 0.1666666666666667 0  0.3333333333333333 0.1666666666666667 0  0.5 0.1666666666666667 0  0.6666666666666666 0.1666666666666667 0  0.8333333333333334 0.1666666666666667 0  1 0.1666666666666667 0  0 0.3333333333333333 0  0.1666666666666667 0.3333333333333333 0  0.3333333333333333 0.3333333333333333 0  0.5 0.3333333333333333 0  0.6666666666666666 0.3333333333333333 0  0.8333333333333334 0.3333333333333333 0  1 0.3333333333333333 0  0 0.5 0  0.1666666666666667 0.5 0  0.3333333333333333 0.5 0  0.5 0.5 0  0.6666666666666666 0.5 0  0.8333333333333334 0.5 0  1 0.5 0  0 0.6666666666666666 0  0.1666666666666667 0.6666666666666666 0  0.3333333333333333 0.6666666666666666 0  0.5 0.6666666666666666 0  0.6666666666666666 0.6666666666666666 0  0.8333333333333334 0.6666666666666666 0  1 0.6666666666666666 0  0 0.8333333333333334 0  0.1666666666666667 0.8333333333333334 0  0.3333333333333333 0.8333333333333334 0  0.5 0.8333333333333334 0  0.6666666666666666 0.8333333333333334 0  0.8333333333333334 0.8333333333333334 0  1 0.8333333333333334 0  0 1 0  0.1666666666666667 1 0  0.3333333333333333 1 0  0.5 1 0  0.6666666666666666 1 0  0.8333333333333334 1 0  1 1 0  0 0 0.1666666666666667  0.1666666666666667 0 0.1666666666666667  0.3333333333333333 0 0.1666666666666667  0.5 0 0.1666666666666667  0.6666666666666666 0 0.1666666666666667  0.8333333333333334 0 0.1666666666666667  1 0 0.1666666666666667  0 0.1666666666666667 0.1666666666666667  0.1666666666666667 0.1666666666666667 0.1666666666666667  0.3333333333333333 0.1666666666666667 0.1666666666666667  0.5 0.1666666666666667 0.1666666666666667  0.6666666666666666 0.1666666666666667 0.1666666666666667  0.8333333333333334 0.1666666666666667 0.1666666666666667  1 0.1666666666666667 0.1666666666666667  0 0.3333333333333333 0.1666666666666667  0.1666666666666667 0.3333333333333333 0.1666666666666667  0.3333333333333333 0.3333333333333333 0.1666666666666667  0.5 0.3333333333333333 0.1666666666666667  0.6666666666666666 0.3333333333333333 0.1666666666666667  0.8333333333333334 0.3333333333333333 0.1666666666666667  1 0.3333333333333333 0.1666666666666667  0 0.5 0.1666666666666667  0.1666666666666667 0.5 0.1666666666666667  0.3333333333333333 0.5 0.1666666666666667  0.5 0.5 0.1666666666666667  0.6666666666666666 0.5 0.1666666666666667  0.8333333333333334 0.5 0.1666666666666667  1 0.5 0.1666666666666667  0 0.6666666666666666 0.1666666666666667  0.1666666666666667 0.6666666666666666 0.1666666666666667  0.3333333333333333 0.6666666666666666 0.1666666666666667  0.5 0.6666666666666666 0.1666666666666667  0.6666666666666666 0.6666666666666666 0.1666666666666667  0.8333333333333334 0.6666666666666666 0.1666666666666667  1 0.6666666666666666 0.1666666666666667  0 0.8333333333333334 0.1666666666666667  0.1666666666666667 0.8333333333333334 0.1666666666666667  0.3333333333333333 0.8333333333333334 0.1666666666666667  0.5 0.8333333333333334 0.1666666666666667  0.6666666666666666 0.8333333333333334 0.1666666666666667  0.8333333333333334 0.8333333333333334 0.1666666666666667  1 0.8333333333333334 0.1666666666666667  0 1 0.1666666666666667  0.1666666666666667 1 0.1666666666666667  0.3333333333333333 1 0.1666666666666667  0.5 1 0.1666666666666667  0.6666666666666666 1 0.1666666666666667  0.8333333333333334 1 0.1666666666666667  1 1 0.1666666666666667  0 0 0.3333333333333333  0.1666666666666667 0 0.3333333333333333  0.3333333333333333 0 0.3333333333333333  0.5 0 0.3333333333333333  0.6666666666666666 0 0.3333333333333333  0.8333333333333334 0 0.3333333333333333  1 0 0.3333333333333333  0 0.1666666666666667 0.3333333333333333  0.1666666666666667 0.1666666666666667 0.3333333333333333  0.3333333333333333 0.1666666666666667 0.3333333333333333  0.5 0.1666666666666667 0.3333333333333333  0.6666666666666666 0.1666666666666667 0.3333333333333333  0.8333333333333334 0.1666666666666667 0.3333333333333333  1 0.1666666666666667 0.3333333333333333  0 0.3333333333333333 0.3333333333333333  0.1666666666666667 0.3333333333333333 0.3333333333333333  0.3333333333333333 0.3333333333333333 0.3333333333333333  0.5 0.3333333333333333 0.3333333333333333  0.6666666666666666 0.3333333333333333 0.3333333333333333  0.8333333333333334 0.3333333333333333 0.3333333333333333  1 0.3333333333333333 0.3333333333333333  0 0.5 0.3333333333333333  0.1666666666666667 0.5 0.3333333333333333  0.3333333333333333 0.5 0.3333333333333333  0.5 0.5 0.3333333333333333  0.6666666666666666 0.5 0.3333333333333333  0.8333333333333334 0.5 0.3333333333333333  1 0.5 0.3333333333333333  0 0.6666666666666666 0.3333333333333333  0.1666666666666667 0.6666666666666666 0.3333333333333333  0.3333333333333333 0.6666666666666666 0.3333333333333333  0.5 0.6666666666666666 0.3333333333333333  0.6666666666666666 0.6666666666666666 0.3333333333333333  0.8333333333333334 0.6666666666666666 0.3333333333333333  1 0.6666666666666666 0.3333333333333333  0 0.8333333333333334 0.3333333333333333  0.1666666666666667 0.8333333333333334 0.3333333333333333  0.3333333333333333 0.8333333333333334 0.3333333333333333  0.5 0.8333333333333334 0.3333333333333333  0.6666666666666666 0.8333333333333334 0.3333333333333333  0.8333333333333334 0.8333333333333334 0.3333333333333333  1 0.8333333333333334 0.3333333333333333  0 1 0.3333333333333333  0.1666666666666667 1 0.3333333333333333  0.3333333333333333 1 0.3333333333333333  0.5 1 0.3333333333333333  0.6666666666666666 1 0.3333333333333333  0.8333333333333334 1 0.3333333333333333  1 1 0.3333333333333333  0 0 0.5  0.1666666666666667 0 0.5  0.3333333333333333 0 0.5  0.5 0 0.5  0.6666666666666666 0 0.5  0.8333333333333334 0 0.5  1 0 0.5  0 0.1666666666666667 0.5  0.1666666666666667 0.1666666666666667 0.5  0.3333333333333333 0.1666666666666667 0.5  0.5 0.1666666666666667 0.5  0.6666666666666666 0.1666666666666667 0.5  0.8333333333333334 0.1666666666666667 0.5  1 0.1666666666666667 0.5  0 0.3333333333333333 0.5  0.1666666666666667 0.3333333333333333 0.5  0.3333333333333333 0.3333333333333333 0.5  0.5 0.3333333333333333 0.5  0.6666666666666666 0.3333333333333333 0.5  0.8333333333333334 0.3333333333333333 0.5  1 0.3333333333333333 0.5  0 0.5 0.5  0.1666666666666667 0.5 0.5  0.3333333333333333 0.5 0.5  0.5 0.5 0.5  0.6666666666666666 0.5 0.5  0.8333333333333334 0.5 0.5  1 0.5 0.5  0 0.6666666666666666 0.5  0.1666666666666667 0.6666666666666666 0.5  0.3333333333333333 0.6666666666666666 0.5  0.5 0.6666666666666666 0.5  0.6666666666666666 0.6666666666666666 0.5  0.8333333333333334 0.6666666666666666 0.5  1 0.6666666666666666 0.5  0 0.8333333333333334 0.5  0.1666666666666667 0.8333333333333334 0.5  0.3333333333333333 0.8333333333333334 0.5  0.5 0.8333333333333334 0.5  0.6666666666666666 0.8333333333333334 0.5  0.8333333333333334 0.8333333333333334 0.5  1 0.8333333333333334 0.5  0 1 0.5  0.1666666666666667 1 0.5  0.3333333333333333 1 0.5  0.5 1 0.5  0.6666666666666666 1 0.5  0.8333333333333334 1 0.5  1 1 0.5  0 0 0.6666666666666666  0.1666666666666667 0 0.6666666666666666  0.3333333333333333 0 0.6666666666666666  0.5 0 0.6666666666666666  0.6666666666666666 0 0.6666666666666666  0.8333333333333334 0 0.6666666666666666  1 0 0.6666666666666666  0 0.1666666666666667 0.6666666666666666  0.1666666666666667 0.1666666666666667 0.6666666666666666  0.3333333333333333 0.1666666666666667 0.6666666666666666  0.5 0.1666666666666667 0.6666666666666666  0.6666666666666666 0.1666666666666667 0.6666666666666666  0.8333333333333334 0.1666666666666667 0.6666666666666666  1 0.1666666666666667 0.6666666666666666  0 0.3333333333333333 0.6666666666666666  0.1666666666666667 0.3333333333333333 0.6666666666666666  0.3333333333333333 0.3333333333333333 0.6666666666666666  0.5 0.3333333333333333 0.6666666666666666  0.6666666666666666 0.3333333333333333 0.6666666666666666  0.8333333333333334 0.3333333333333333 0.6666666666666666  1 0.3333333333333333 0.6666666666666666  0 0.5 0.6666666666666666  0.1666666666666667 0.5 0.6666666666666666  0.3333333333333333 0.5 0.6666666666666666  0.5 0.5 0.6666666666666666  0.6666666666666666 0.5 0.6666666666666666  0.8333333333333334 0.5 0.6666666666666666  1 0.5 0.6666666666666666  0 0.6666666666666666 0.6666666666666666  0.1666666666666667 0.6666666666666666 0.6666666666666666  0.3333333333333333 0.6666666666666666 0.6666666666666666  0.5 0.6666666666666666 0.6666666666666666  0.6666666666666666 0.6666666666666666 0.6666666666666666  0.8333333333333334 0.6666666666666666 0.6666666666666666  1 0.6666666666666666 0.6666666666666666  0 0.8333333333333334 0.6666666666666666  0.1666666666666667 0.8333333333333334 0.6666666666666666  0.3333333333333333 0.8333333333333334 0.6666666666666666  0.5 0.8333333333333334 0.6666666666666666  0.6666666666666666 0.8333333333333334 0.6666666666666666  0.8333333333333334 0.8333333333333334 0.6666666666666666  1 0.8333333333333334 0.6666666666666666  0 1 0.6666666666666666  0.1666666666666667 1 0.6666666666666666  0.3333333333333333 1 0.6666666666666666  0.5 1 0.6666666666666666  0.6666666666666666 1 0.6666666666666666  0.8333333333333334 1 0.6666666666666666  1 1 0.6666666666666666  0 0 0.8333333333333334  0.1666666666666667 0 0.8333333333333334  0.3333333333333333 0 0.8333333333333334  0.5 0 0.8333333333333334  0.6666666666666666 0 0.8333333333333334  0.8333333333333334 0 0.8333333333333334  1 0 0.8333333333333334  0 0.1666666666666667 0.8333333333333334  0.1666666666666667 0.1666666666666667 0.8333333333333334  0.3333333333333333 0.1666666666666667 0.8333333333333334  0.5 0.1666666666666667 0.8333333333333334  0.6666666666666666 0.1666666666666667 0.8333333333333334  0.8333333333333334 0.1666666666666667 0.8333333333333334  1 0.16666666666
[...]
<PointData  Vectors="f_25"> 
<DataArray  type="Float64"  Name="f_25"  NumberOfComponents="3" format="ascii">-1.7261351408822515e-02 -1.7261351408822539e-02 0.0000000000000000e+00  -1.6949059678173558e-02 -1.7447953634743739e-02 0.0000000000000000e+00  -1.5834346406279974e-02 -1.8620610857378921e-02 0.0000000000000000e+00  -1.3523523806923997e-02 -2.0427852222917382e-02 0.0000000000000000e+00  -9.8965943074889994e-03 -2.2328197531566518e-02 0.0000000000000000e+00  -5.1976911111791578e-03 -2.3727027081886020e-02 0.0000000000000000e+00  0.0000000000000000e+00 -2.4073799394289244e-02 0.0000000000000000e+00  -1.7447953634743739e-02 -1.6949059678173572e-02 0.0000000000000000e+00  -1.6835806677489698e-02 -1.6835806677489702e-02 0.0000000000000000e+00  -1.5461148776962561e-02 -1.7940432399224698e-02 0.0000000000000000e+00  -1.3028185045825442e-02 -1.9785326217855472e-02 0.0000000000000000e+00  -9.4496343557535292e-03 -2.1779192410860591e-02 0.0000000000000000e+00  -4.9323217828531529e-03 -2.3288417365986278e-02 0.0000000000000000e+00  0.0000000000000000e+00 -2.3784062723576940e-02 0.0000000000000000e+00  -1.8620610857378910e-02 -1.5834346406279981e-02 0.0000000000000000e+00  -1.7940432399224701e-02 -1.5461148776962572e-02 0.0000000000000000e+00  -1.6480112598660661e-02 -1.6480112598660668e-02 0.0000000000000000e+00  -1.3917675051506168e-02 -1.8297917403340969e-02 0.0000000000000000e+00  -1.0117306534214247e-02 -2.0310434215420080e-02 0.0000000000000000e+00  -5.2731223839112490e-03 -2.1869987429155170e-02 0.0000000000000000e+00  0.0000000000000000e+00 -2.2429640966071356e-02 0.0000000000000000e+00  -2.0427852222917372e-02 -1.3523523806924001e-02 0.0000000000000000e+00  -1.9785326217855472e-02 -1.3028185045825456e-02 0.0000000000000000e+00  -1.8297917403340976e-02 -1.3917675051506173e-02 0.0000000000000000e+00  -1.5601302871369238e-02 -1.5601302871369233e-02 0.0000000000000000e+00  -1.1451184393192700e-02 -1.7505896620481857e-02 0.0000000000000000e+00  -6.0057133694380298e-03 -1.9008439751789865e-02 0.0000000000000000e+00  0.0000000000000000e+00 -1.9555126240579562e-02 0.0000000000000000e+00  -2.2328197531566497e-02 -9.8965943074889769e-03 0.0000000000000000e+00  -2.1779192410860591e-02 -9.4496343557535240e-03 0.0000000000000000e+00  -2.0310434215420080e-02 -1.0117306534214254e-02 0.0000000000000000e+00  -1.7505896620481864e-02 -1.1451184393192709e-02 0.0000000000000000e+00  -1.2987286765311057e-02 -1.2987286765311057e-02 0.0000000000000000e+00  -6.8611894605447961e-03 -1.4222537930571651e-02 0.0000000000000000e+00  0.0000000000000000e+00 -1.4677670792674164e-02 0.0000000000000000e+00  -2.3727027081886041e-02 -5.1976911111791561e-03 0.0000000000000000e+00  -2.3288417365986275e-02 -4.9323217828531616e-03 0.0000000000000000e+00  -2.1869987429155167e-02 -5.2731223839112551e-03 0.0000000000000000e+00  -1.9008439751789862e-02 -6.0057133694380281e-03 0.0000000000000000e+00  -1.4222537930571651e-02 -6.8611894605448047e-03 0.0000000000000000e+00  -7.5596747234283283e-03 -7.5596747234283300e-03 0.0000000000000000e+00  0.0000000000000000e+00 -7.8244445041001625e-03 0.0000000000000000e+00  -2.4073799394289237e-02 0.0000000000000000e+00 0.0000000000000000e+00  -2.3784062723576933e-02 0.0000000000000000e+00 0.0000000000000000e+00  -2.2429640966071362e-02 0.0000000000000000e+00 0.0000000000000000e+00  -1.9555126240579559e-02 0.0000000000000000e+00 0.0000000000000000e+00  -1.4677670792674164e-02 0.0000000000000000e+00 0.0000000000000000e+00  -7.8244445041001590e-03 0.0000000000000000e+00 0.0000000000000000e+00  0.0000000000000000e+00 0.0000000000000000e+00 0.0000000000000000e+00  -1.6331296090818518e-02 -1.6331296090818532e-02 7.9818162599153933e-04  -1.6298118922477987e-02 -1.6418470833017271e-02 -3.7652356373982330e-04  -1.5434544982572684e-02 -1.7573986475195973e-02 -1.4973478212410051e-03  -1.3347069309643829e-02 -1.9379507757720533e-02 -2.5790878934425286e-03  -9.8947868547095315e-03 -2.1294523881254114e-02 -3.5203196450727726e-03  -5.2838328165842174e-03 -2.2719736434194445e-02 -4.1611932743342789e-03  0.0000000000000000e+00 -2.3040242378752209e-02 -4.3623583546197088e-03  -1.6418470833017260e-02 -1.6298118922478014e-02 -3.7652356373982530e-04  -1.6172894751575500e-02 -1.6172894751575503e-02 -1.5490904289486454e-03  -1.5019407759293061e-02 -1.7257467734080486e-02 -2.7252270719317693e-03  -1.2775941558845949e-02 -1.9107226081147580e-02 -3.9003708836282337e-03  -9.3645499914585192e-03 -2.1125914834080585e-02 -4.9470427348256843e-03  -4.9579692892420353e-03 -2.2667859665483212e-02 -5.6588411707917865e-03  0.0000000000000000e+00 -2.3209879674961638e-02 -5.8363119915328179e-03  -1.7573986475195980e-02 -1.5434544982572698e-02 -1.4973478212409914e-03  -1.7257467734080486e-02 -1.5019407759293070e-02 -2.7252270719317706e-03  -1.6038500144425569e-02 -1.6038500144425569e-02 -4.0937536291574027e-03  -1.3681029540125724e-02 -1.7887285431250274e-02 -5.5672189606104372e-03  -1.0059457777439362e-02 -1.9953537518403553e-02 -6.9699843382773751e-03  -5.3255457917663132e-03 -2.1566529742464195e-02 -7.9800788380756920e-03  0.0000000000000000e+00 -2.2169862884445876e-02 -8.2622660095131202e-03  -1.9379507757720547e-02 -1.3347069309643829e-02 -2.5790878934425381e-03  -1.9107226081147583e-02 -1.2775941558845958e-02 -3.9003708836282394e-03  -1.7887285431250264e-02 -1.3681029540125731e-02 -5.5672189606104303e-03  -1.5429221194740632e-02 -1.5429221194740635e-02 -7.4913051997864090e-03  -1.1481595570517559e-02 -1.7431358448738599e-02 -9.4664140494443941e-03  -6.1345114406852301e-03 -1.9027715553236683e-02 -1.1000868621215231e-02  0.0000000000000000e+00 -1.9612744189471419e-02 -1.1527511998243532e-02  -2.1294523881254104e-02 -9.8947868547095315e-03 -3.5203196450727730e-03  -2.1125914834080588e-02 -9.3645499914585279e-03 -4.9470427348256825e-03  -1.9953537518403557e-02 -1.0059457777439381e-02 -6.9699843382773742e-03  -1.7431358448738610e-02 -1.1481595570517552e-02 -9.4664140494443855e-03  -1.3149620164628171e-02 -1.3149620164628176e-02 -1.2206935777007055e-02  -7.1034150281947305e-03 -1.4522495063079245e-02 -1.4458170411335888e-02  0.0000000000000000e+00 -1.5050620167983876e-02 -1.5326986399316206e-02  -2.2719736434194442e-02 -5.2838328165842174e-03 -4.1611932743342789e-03  -2.2667859665483209e-02 -4.9579692892420353e-03 -5.6588411707917822e-03  -2.1566529742464206e-02 -5.3255457917663132e-03 -7.9800788380756903e-03  -1.9027715553236686e-02 -6.1345114406852301e-03 -1.1000868621215231e-02  -1.4522495063079253e-02 -7.1034150281947340e-03 -1.4458170411335885e-02  -7.9223015823973002e-03 -7.9223015823973036e-03 -1.7422557475934086e-02  0.0000000000000000e+00 -8.2910465712861293e-03 -1.8645904043013611e-02  -2.3040242378752206e-02 0.0000000000000000e+00 -4.3623583546196932e-03  -2.3209879674961627e-02 0.0000000000000000e+00 -5.8363119915328101e-03  -2.2169862884445880e-02 0.0000000000000000e+00 -8.2622660095131271e-03  -1.9612744189471412e-02 0.0000000000000000e+00 -1.1527511998243534e-02  -1.5050620167983867e-02 0.0000000000000000e+00 -1.5326986399316208e-02  -8.2910465712861224e-03 0.0000000000000000e+00 -1.8645904043013604e-02  0.0000000000000000e+00 0.0000000000000000e+00 -2.0208806984436341e-02  -1.4800464042473198e-02 -1.4800464042473217e-02 1.6276976054138020e-03  -1.4890766001847022e-02 -1.4939997625334238e-02 -5.4808455322554546e-04  -1.4274432320040178e-02 -1.6150780757642421e-02 -2.7096362519140483e-03  -1.2491983214905793e-02 -1.8040838124762437e-02 -4.7982165461686191e-03  -9.3541032151753783e-03 -2.0072187189768366e-02 -6.6237715403063523e-03  -5.0321805468636583e-03 -2.1613504572229512e-02 -7.8903714004514083e-03  0.0000000000000000e+00 -2.2007595501099899e-02 -8.4140780831542857e-03  -1.4939997625334224e-02 -1.4890766001847052e-02 -5.4808455322554275e-04  -1.4808860735625219e-02 -1.4808860735625222e-02 -2.6800701576407391e-03  -1.3910451758144744e-02 -1.5979928589992469e-02 -4.9852838128967951e-03  -1.1969507485117936e-02 -1.7961665975428077e-02 -7.3022147702910458e-03  -8.8556587359811690e-03 -2.0149151211615028e-02 -9.3785122666330111e-03  -4.7163834048382178e-03 -2.1840246652924028e-02 -1.0809747229313001e-02  0.0000000000000000e+00 -2.2448084982923777e-02 -1.1223356780306440e-02  -1.6150780757642404e-02 -1.4274432320040194e-02 -2.7096362519140431e-03  -1.5979928589992455e-02 -1.3910451758144742e-02 -4.9852838128967960e-03  -1.5079239353206852e-02 -1.5079239353206856e-02 -7.7179153885898613e-03  -1.3067387672812656e-02 -1.7144604544201452e-02 -1.0673169421000300e-02  -9.7250056359684672e-03 -1.9477362377740212e-02 -1.3510830294423393e-02  -5.1759805255477869e-03 -2.1304814332370001e-02 -1.5567546803595176e-02  0.0000000000000000e+00 -2.1962128312067269e-02 -1.6187978593021620e-02  -1.8040838124762433e-02 -1.2491983214905798e-02 -4.7982165461686174e-03  -1.7961665975428066e-02 -1.1969507485117947e-02 -7.3022147702910519e-03  -1.7144604544201462e-02 -1.3067387672812651e-02 -1.0673169421000299e-02  -1.5121479447199096e-02 -1.5121479447199090e-02 -1.4608487163080464e-02  -1.1450372167917030e-02 -1.7512827605271501e-02 -1.8715106414035752e-02  -6.1625796200735885e-03 -1.9424159361794667e-02 -2.1914539257005230e-02  0.0000000000000000e+00 -2.0053733223562659e-02 -2.3015003878656078e-02  -2.0072187189768356e-02 -9.3541032151753817e-03 -6.6237715403063479e-03  -2.0149151211615011e-02 -8.8556587359811725e-03 -9.3785122666330076e-03  -1.9477362377740216e-02 -9.7250056359684516e-03 -1.3510830294423390e-02  -1.7512827605271522e-02 -1.1450372167917017e-02 -1.8715106414035749e-02  -1.3520852139569812e-02 -1.3520852139569812e-02 -2.4596464710417969e-02  -7.3717134144502478e-03 -1.5257254294122625e-02 -2.9437331632987545e-02  0.0000000000000000e+00 -1.5871214972140120e-02 -3.1228538694728719e-02  -2.1613504572229512e-02 -5.0321805468636505e-03 -7.8903714004513997e-03  -2.1840246652924018e-02 -4.7163834048382222e-03 -1.0809747229312992e-02  -2.1304814332370001e-02 -5.1759805255477938e-03 -1.5567546803595175e-02  -1.9424159361794670e-02 -6.1625796200735789e-03 -2.1914539257005226e-02  -1.5257254294122629e-02 -7.3717134144502443e-03 -2.9437331632987545e-02  -8.4238799425918175e-03 -8.4238799425918123e-03 -3.5971599825751439e-02  0.0000000000000000e+00 -8.8978672055704377e-03 -3.8571567598838494e-02  -2.2007595501099896e-02 0.0000000000000000e+00 -8.4140780831542892e-03  -2.2448084982923774e-02 0.0000000000000000e+00 -1.1223356780306440e-02  -2.1962128312067269e-02 0.0000000000000000e+00 -1.6187978593021624e-02  -2.0053733223562662e-02 0.0000000000000000e+00 -2.3015003878656074e-02  -1.5871214972140110e-02 0.0000000000000000e+00 -3.1228538694728719e-02  -8.8978672055704360e-03 0.0000000000000000e+00 -3.8571567598838494e-02  0.0000000000000000e+00 0.0000000000000000e+00 -4.2016058571052152e-02  -1.2360583340943747e-02 -1.2360583340943762e-02 2.6618004477925003e-03  -1.2571214900889131e-02 -1.2550416016087449e-02 -3.7997270429650855e-04  -1.2209314027041349e-02 -1.3795962498376857e-02 -3.3618168385821266e-03  -1.0837524938183947e-02 -1.5718911706528550e-02 -6.2471678987268261e-03  -8.2177248491943546e-03 -1.7827413028198239e-02 -8.7784490300215259e-03  -4.4627980547435019e-03 -1.9466672705656295e-02 -1.0544405661323284e-02  0.0000000000000000e+00 -1.9931902644851830e-02 -1.1303832170204739e-02  -1.2550416016087435e-02 -1.2571214900889147e-02 -3.7997270429649435e-04  -1.2564571182499441e-02 -1.2564571182499446e-02 -3.4415832699163209e-03  -1.1950074106863079e-02 -1.3824561725468977e-02 -6.7042604200926031e-03  -1.0434098631947535e-02 -1.5913480228902994e-02 -1.0022247024366096e-02  -7.8135252757771598e-03 -1.8262855346031906e-02 -1.3030788240701637e-02  -4.1899410341931379e-03 -2.0111328425075792e-02 -1.5129185664584365e-02  0.0000000000000000e+00 -2.0810329894302194e-02 -1.5794605230464366e-02  -1.3795962498376854e-02 -1.2209314027041359e-02 -3.3618168385821257e-03  -1.3824561725468965e-02 -1.1950074106863100e-02 -6.7042604200926101e-03  -1.3296026606461236e-02 -1.3296026606461241e-02 -1.0645372582392879e-02  -1.1795171147671576e-02 -1.5615822618251618e-02 -1.4998695415796516e-02  -8.9330967681698747e-03 -1.8294184297615056e-02 -1.9259570428510064e-02  -4.7849471209508564e-03 -2.0400030651493335e-02 -2.2359462546135123e-02  0.0000000000000000e+00 -2.1107824606689779e-02 -2.3316367468452268e-02  -1.5718911706528543e-02 -1.0837524938183950e-02 -6.2471678987268322e-03  -1.5913480228902991e-02 -1.0434098631947539e-02 -1.0022247024366097e-02  -1.5615822618251621e-02 -1.1795171147671571e-02 -1.4998695415796515e-02  -1.4292886789350329e-02 -1.4292886789350329e-02 -2.1008985955205332e-02  -1.1127549875175448e-02 -1.7308850730648102e-02 -2.7503426246316402e-02  -6.0399898779159916e-03 -1.9719301483065530e-02 -3.2547092045613894e-02  0.0000000000000000e+00 -2.0377053514491334e-02 -3.4190711201413537e-02  -1.7827413028198239e-02 -8.2177248491943460e-03 -8.7784490300215241e-03  -1.8262855346031913e-02 -7.8135252757771650e-03 -1.3030788240701634e-02  -1.8294184297615059e-02 -8.9330967681698643e-03 -1.9259570428510061e-02  -1.7308850730648102e-02 -1.1127549875175448e-02 -2.7503426246316402e-02  -1.3901005003130056e-02 -1.3901005003130049e-02 -3.7410594415863280e-02  -7.6599953933161888e-03 -1.6300451863206451e-02 -4.5520391633923865e-02  0.0000000000000000e+00 -1.7053548471433890e-02 -4.8188495685991081e-02  -1.9466672705656295e-02 -4.4627980547434932e-03 -1.0544405661323288e-02  -2.0111328425075792e-02 -4.1899410341931361e-03 -1.5129185664584358e-02  -2.0400030651493341e-02 -4.7849471209508582e-03 -2.2359462546135127e-02  -1.9719301483065537e-02 -6.0399898779159890e-03 -3.2547092045613894e-02  -1.6300451863206458e-02 -7.6599953933161801e-03 -4.5520391633923865e-02  -9.1640044313109504e-03 -9.1640044313109435e-03 -5.6977241586110637e-02  0.0000000000000000e+00 -9.8393422352890045e-03 -6.1118997229505673e-02  -1.9931902644851830e-02 0.0000000000000000e+00 -1.1303832170204730e-02  -2.0810329894302201e-02 0.0000000000000000e+00 -1.5794605230464359e-02  -2.1107824606689776e-02 0.0000000000000000e+00 -2.3316367468452261e-02  -2.0377053514491338e-02 0.0000000000000000e+00 -3.4190711201413530e-02  -1.7053548471433897e-02 0.0000000000000000e+00 -4.8188495685991088e-02  -9.8393422352889871e-03 0.0000000000000000e+00 -6.1118997229505673e-02  0.0000000000000000e+00 0.0000000000000000e+00 -6.6812275771266944e-02  -8.9185976585271966e-03 -8.9185976585272175e-03 3.7160357900536340e-03  -9.1802156859924836e-03 -9.1160147487083787e-03 2.6324566883868413e-05  -9.0459985887683617e-03 -1.0216931774471116e-02 -3.4964785809710498e-03  -8.1632270794122688e-03 -1.1921970439365435e-02 -6.8796013579876265e-03  -6.3007383011550429e-03 -1.3853619475128464e-02 -9.8567970879892067e-03  -3.4827737269493763e-03 -1.5388561434145473e-02 -1.1948611548494649e-02  0.0000000000000000e+00 -1.5841122848346090e-02 -1.2836897499826911e-02  -9.1160147487083718e-03 -9.1802156859924905e-03 2.6324566883847909e-05  -9.2406703591185382e-03 -9.2406703591185538e-03 -3.8166389255208529e-03  -8.9182578991897892e-03 -1.0406231122527388e-02 -7.7880276542836163e-03  -7.9285090071659261e-03 -1.2335940047158574e-02 -1.1851483155462380e-02  -6.0440101692538937e-03 -1.4584325778063291e-02 -1.5592443824776845e-02  -3.2899382632637047e-03 -1.6385451795836996e-02 -1.8255430047821136e-02  0.0000000000000000e+00 -1.7089857134946384e-02 -1.9200219579050271e-02  -1.0216931774471123e-02 -9.0459985887683617e-03 -3.4964785809710641e-03  -1.0406231122527384e-02 -8.9182578991897840e-03 -7.7880276542836120e-03  -1.0258037658640489e-02 -1.0258037658640499e-02 -1.2661597548652584e-02  -9.3956168776024706e-03 -1.2577847887967716e-02 -1.8155455344986724e-02  -7.3025806710103336e-03 -1.5391997647787880e-02 -2.3679136502181519e-02  -3.9673196690533565e-03 -1.7606895779874392e-02 -2.7735775152201086e-02  0.0000000000000000e+00 -1.8274457786946263e-02 -2.9084033520238934e-02  -1.1921970439365442e-02 -8.1632270794122636e-03 -6.8796013579876386e-03  -1.2335940047158581e-02 -7.9285090071659174e-03 -1.1851483155462384e-02  -1.2577847887967720e-02 -9.3956168776024602e-03 -1.8155455344986724e-02  -1.2189792441562852e-02 -1.2189792441562841e-02 -2.6128714015443297e-02  -9.9117223286204308e-03 -1.5850536023273180e-02 -3.5227650174345919e-02  -5.4472974604084928e-03 -1.8742897694250037e-02 -4.2218238262311178e-02  0.0000000000000000e+00 -1.9290653153537687e-02 -4.4384630137901851e-02  -1.3853619475128453e-02 -6.3007383011550464e-03 -9.8567970879891997e-03  -1.4584325778063305e-02 -6.0440101692538859e-03 -1.5592443824776842e-02  -1.5391997647787889e-02 -7.3025806710103214e-03 -2.3679136502181512e-02  -1.5850536023273184e-02 -9.9117223286204186e-03 -3.5227650174345919e-02  -1.3600260161688648e-02 -1.3600260161688643e-02 -5.0671009658064883e-02  -7.5987510361164908e-03 -1.6942646921829948e-02 -6.3068121874435598e-02  0.0000000000000000e+00 -1.7787029679897266e-02 -6.6356629033677339e-02  -1.5388561434145482e-02 -3.4827737269493755e-03 -1.1948611548494652e-02  -1.6385451795836996e-02 -3.2899382632637030e-03 -1.8255430047821129e-02  -1.7606895779874395e-02 -3.9673196690533487e-03 -2.7735775152201093e-02  -1.8742897694250041e-02 -5.4472974604084928e-03 -4.2218238262311178e-02  -1.6942646921829937e-02 -7.5987510361164743e-03 -6.3068121874435598e-02  -9.8671418141475700e-03 -9.8671418141475595e-03 -8.1888208068620669e-02  0.0000000000000000e+00 -1.0817207398153811e-02 -8.7716656301569745e-02  -1.5841122848346101e-02 0.0000000000000000e+00 -1.2836897499826918e-02  -1.7089857134946394e-02 0.0000000000000000e+00 -1.9200219579050260e-02  -1.8274457786946263e-02 0.0000000000000000e+00 -2.9084033520238927e-02  -1.9290653153537670e-02 0.0000000000000000e+00 -4.4384630137901851e-02  -1.7787029679897263e-02 0.0000000000000000e+00 -6.6356629033677325e-02  -1.0817207398153816e-02 0.0000000000000000e+00 -8.7716656301569731e-02  0.0000000000000000e+00 0.0000000000000000e+00 -9.6239187037470406e-02  -4.6226320160544830e-03 -4.6226320160544952e-03 4.4063247090963369e-03  -4.8182186991300932e-03 -4.7592045476169487e-03 3.7247390244107012e-04  -4.8171551025076786e-03 -5.4335378853028757e-03 -3.4257500848077090e-03  -4.4192843164481644e-03 -6.5009659447678976e-03 -7.0288606575227442e-03  -3.4805416000521015e-03 -7.7617416861127777e-03 -1.0184808965952214e-02  -2.0195966239233377e-03 -8.7744906145775965e-03 -1.2487211326607019e-02  0.0000000000000000e+00 -9.0119820753898714e-03 -1.3509672024168876e-02  -4.7592045476169418e-03 -4.8182186991300984e-03 3.7247390244105885e-04  -4.9013451969434872e-03 -4.9013451969434846e-03 -3.9614889466587236e-03  -4.8007986371916608e-03 -5.6449454410592657e-03 -8.3518323153186115e-03  -4.3475131834363381e-03 -6.9053792329323753e-03 -1.2847826211202557e-02  -3.3845141743852154e-03 -8.4564566738598041e-03 -1.7027883343076970e-02  -1.9218764219117970e-03 -9.7072348411988800e-03 -2.0135555530434106e-02  0.0000000000000000e+00 -1.0169398556691713e-02 -2.1457111484884727e-02  -5.4335378853028783e-03 -4.8171551025076855e-03 -3.4257500848077146e-03  -5.6449454410592709e-03 -4.8007986371916599e-03 -8.3518323153186080e-03  -5.6922520292202522e-03 -5.6922520292202608e-03 -1.3764826311437628e-02  -5.3942415977406410e-03 -7.3176247714053762e-03 -1.9956189421277158e-02  -4.3287733776236391e-03 -9.4898605417314489e-03 -2.6326140977453737e-02  -2.4571052891501624e-03 -1.1194172262984511e-02 -3.1160544223014269e-02  0.0000000000000000e+00 -1.1598851264996978e-02 -3.3086820353137633e-02  -6.5009659447678985e-03 -4.4192843164481627e-03 -7.0288606575227251e-03  -6.9053792329323840e-03 -4.3475131834363320e-03 -1.2847826211202550e-02  -7.3176247714053710e-03 -5.3942415977406470e-03 -1.9956189421277162e-02  -7.6578627554622011e-03 -7.6578627554622107e-03 -2.9432533653705541e-02  -6.5566618516166306e-03 -1.1107717921895022e-02 -4.0932756759099687e-02  -3.7180365988138354e-03 -1.3734041501880867e-02 -4.9688000420431352e-02  0.0000000000000000e+00 -1.3897923285174881e-02 -5.2526067020062288e-02  -7.7617416861127777e-03 -3.4805416000520920e-03 -1.0184808965952200e-02  -8.4564566738598076e-0