<?xml version="1.0"?>
<VTKFile type="UnstructuredGrid"  version="0.1"  >
<UnstructuredGrid>
<Piece  NumberOfPoints="729" NumberOfCells="3072">
<Points>
<DataArray  type="Float64"  NumberOfComponents="3"  format="ascii">0 0 0  0.125 0 0  0.25 0 0  0.375 0 0  0.5 0 0  0.625 0 0  0.75 0 0  0.875 0 0  1 0 0  0 0.125 0  0.125 0.125 0  0.25 0.125 0  0.375 0.125 0  0.5 0.125 0  0.625 0.125 0  0.75 0.125 0  0.875 0.125 0  1 0.125 0  0 0.25 0  0.125 0.25 0  0.25 0.25 0  0.375 0.25 0  0.5 0.25 0  0.625 0.25 0  0.75 0.25 0  0.875 0.25 0  1 0.25 0  0 0.375 0  0.125 0.375 0  0.25 0.375 0  0.375 0.375 0  0.5 0.375 0  0.625 0.375 0  0.75 0.375 0  0.875 0.375 0  1 0.375 0  0 0.5 0  0.125 0.5 0  0.25 0.5 0  0.375 0.5 0  0.5 0.5 0  0.625 0.5 0  0.75 0.5 0  0.875 0.5 0  1 0.5 0  0 0.625 0  0.125 0.625 0  0.25 0.625 0  0.375 0.625 0  0.5 0.625 0  0.625 0.625 0  0.75 0.625 0  0.875 0.625 0  1 0.625 0  0 0.75 0  0.125 0.75 0  0.25 0.75 0  0.375 0.75 0  0.5 0.75 0  0.625 0.75 0  0.75 0.75 0  0.875 0.75 0  1 0.75 0  0 0.875 0  0.125 0.875 0  0.25 0.875 0  0.375 0.875 0  0.5 0.875 0  0.625 0.875 0  0.75 0.875 0  0.875 0.875 0  1 0.875 0  0 1 0  0.125 1 0  0.25 1 0  0.375 1 0  0.5 1 0  0.625 1 0  0.75 1 0  0.875 1 0  1 1 0  0 0 0.125  0.125 0 0.125  0.25 0 0.125  0.375 0 0.125  0.5 0 0.125  0.625 0 0.125  0.75 0 0.125  0.875 0 0.125  1 0 0.125  0 0.125 0.125  0.125 0.125 0.125  0.25 0.125 0.125  0.375 0.125 0.125  0.5 0.125 0.125  0.625 0.125 0.125  0.75 0.125 0.125  0.875 0.125 0.125  1 0.125 0.125  0 0.25 0.125  0.125 0.25 0.125  0.25 0.25 0.125  0.375 0.25 0.125  0.5 0.25 0.125  0.625 0.25 0.125  0.75 0.25 0.125  0.875 0.25 0.125  1 0.25 0.125  0 0.375 0.125  0.125 0.375 0.125  0.25 0.375 0.125  0.375 0.375 0.125  0.5 0.375 0.125  0.625 0.375 0.125  0.75 0.375 0.125  0.875 0.375 0.125  1 0.375 0.125  0 0.5 0.125  0.125 0.5 0.125  0.25 0.5 0.125  0.375 0.5 0.125  0.5 0.5 0.125  0.625 0.5 0.125  0.75 0.5 0.125  0.875 0.5 0.125  1 0.5 0.125  0 0.625 0.125  0.125 0.625 0.125  0.25 0.625 0.125  0.375 0.625 0.125  0.5 0.625 0.125  0.625 0.625 0.125  0.75 0.625 0.125  0.875 0.625 0.125  1 0.625 0.125  0 0.75 0.125  0.125 0.75 0.125  0.25 0.75 0.125  0.375 0.75 0.125  0.5 0.75 0.125  0.625 0.75 0.125  0.75 0.75 0.125  0.875 0.75 0.125  1 0.75 0.125  0 0.875 0.125  0.125 0.875 0.125  0.25 0.875 0.125  0.375 0.875 0.125  0.5 0.875 0.125  0.625 0.875 0.125  0.75 0.875 0.125  0.875 0.875 0.125  1 0.875 0.125  0 1 0.125  0.125 1 0.125  0.25 1 0.125  0.375 1 0.125  0.5 1 0.125  0.625 1 0.125  0.75 1 0.125  0.875 1 0.125  1 1 0.125  0 0 0.25  0.125 0 0.25  0.25 0 0.25  0.375 0 0.25  0.5 0 0.25  0.625 0 0.25  0.75 0 0.25  0.875 0 0.25  1 0 0.25  0 0.125 0.25  0.125 0.125 0.25  0.25 0.125 0.25  0.375 0.125 0.25  0.5 0.125 0.25  0.625 0.125 0.25  0.75 0.125 0.25  0.875 0.125 0.25  1 0.125 0.25  0 0.25 0.25  0.125 0.25 0.25  0.25 0.25 0.25  0.375 0.25 0.25  0.5 0.25 0.25  0.625 0.25 0.25  0.75 0.25 0.25  0.875 0.25 0.25  1 0.25 0.25  0 0.375 0.25  0.125 0.375 0.25  0.25 0.375 0.25  0.375 0.375 0.25  0.5 0.375 0.25  0.625 0.375 0.25  0.75 0.375 0.25  0.875 0.375 0.25  1 0.375 0.25  0 0.5 0.25  0.125 0.5 0.25  0.25 0.5 0.25  0.375 0.5 0.25  0.5 0.5 0.25  0.625 0.5 0.25  0.75 0.5 0.25  0.875 0.5 0.25  1 0.5 0.25  0 0.625 0.25  0.125 0.625 0.25  0.25 0.625 0.25  0.375 0.625 0.25  0.5 0.625 0.25  0.625 0.625 0.25  0.75 0.625 0.25  0.875 0.625 0.25  1 0.625 0.25  0 0.75 0.25  0.125 0.75 0.25  0.25 0.75 0.25  0.375 0.75 0.25  0.5 0.75 0.25  0.625 0.75 0.25  0.75 0.75 0.25  0.875 0.75 0.25  1 0.75 0.25  0 0.875 0.25  0.125 0.875 0.25  0.25 0.875 0.25  0.375 0.875 0.25  0.5 0.875 0.25  0.625 0.875 0.25  0.75 0.875 0.25  0.875 0.875 0.25  1 0.875 0.25  0 1 0.25  0.125 1 0.25  0.25 1 0.25  0.375 1 0.25  0.5 1 0.25  0.625 1 0.25  0.75 1 0.25  0.875 1 0.25  1 1 0.25  0 0 0.375  0.125 0 0.375  0.25 0 0.375  0.375 0 0.375  0.5 0 0.375  0.625 0 0.375  0.75 0 0.375  0.875 0 0.375  1 0 0.375  0 0.125 0.375  0.125 0.125 0.375  0.25 0.125 0.375  0.375 0.125 0.375  0.5 0.125 0.375  0.625 0.125 0.375  0.75 0.125 0.375  0.875 0.125 0.375  1 0.125 0.375  0 0.25 0.375  0.125 0.25 0.375  0.25 0.25 0.375  0.375 0.25 0.375  0.5 0.25 0.375  0.625 0.25 0.375  0.75 0.25 0.375  0.875 0.25 0.375  1 0.25 0.375  0 0.375 0.375  0.125 0.375 0.375  0.25 0.375 0.375  0.375 0.375 0.375  0.5 0.375 0.375  0.625 0.375 0.375  0.75 0.375 0.375  0.875 0.375 0.375  1 0.375 0.375  0 0.5 0.375  0.125 0.5 0.375  0.25 0.5 0.375  0.375 0.5 0.375  0.5 0.5 0.375  0.625 0.5 0.375  0.75 0.5 0.375  0.875 0.5 0.375  1 0.5 0.375  0 0.625 0.375  0.125 0.625 0.375  0.25 0.625 0.375  0.375 0.625 0.375  0.5 0.625 0.375  0.625 0.625 0.375  0.75 0.625 0.375  0.875 0.625 0.375  1 0.625 0.375  0 0.75 0.375  0.125 0.75 0.375  0.25 0.75 0.375  0.375 0.75 0.375  0.5 0.75 0.375  0.625 0.75 0.375  0.75 0.75 0.375  0.875 0.75 0.375  1 0.75 0.375  0 0.875 0.375  0.125 0.875 0.375  0.25 0.875 0.375  0.375 0.875 0.375  0.5 0.875 0.375  0.625 0.875 0.375  0.75 0.875 0.375  0.875 0.875 0.375  1 0.875 0.375  0 1 0.375  0.125 1 0.375  0.25 1 0.375  0.375 1 0.375  0.5 1 0.375  0.625 1 0.375  0.75 1 0.375  0.875 1 0.375  1 1 0.375  0 0 0.5  0.125 0 0.5  0.25 0 0.5  0.375 0 0.5  0.5 0 0.5  0.625 0 0.5  0.75 0 0.5  0.875 0 0.5  1 0 0.5  0 0.125 0.5  0.125 0.125 0.5  0.25 0.125 0.5  0.375 0.125 0.5  0.5 0.125 0.5  0.625 0.125 0.5  0.75 0.125 0.5  0.875 0.125 0.5  1 0.125 0.5  0 0.25 0.5  0.125 0.25 0.5  0.25 0.25 0.5  0.375 0.25 0.5  0.5 0.25 0.5  0.625 0.25 0.5  0.75 0.25 0.5  0.875 0.25 0.5  1 0.25 0.5  0 0.375 0.5  0.125 0.375 0.5  0.25 0.375 0.5  0.375 0.375 0.5  0.5 0.375 0.5  0.625 0.375 0.5  0.75 0.375 0.5  0.875 0.375 0.5  1 0.375 0.5  0 0.5 0.5  0.125 0.5 0.5  0.25 0.5 0.5  0.375 0.5 0.5  0.5 0.5 0.5  0.625 0.5 0.5  0.75 0.5 0.5  0.875 0.5 0.5  1 0.5 0.5  0 0.625 0.5  0.125 0.625 0.5  0.25 0.625 0.5  0.375 0.625 0.5  0.5 0.625 0.5  0.625 0.625 0.5  0.75 0.625 0.5  0.875 0.625 0.5  1 0.625 0.5  0 0.75 0.5  0.125 0.75 0.5  0.25 0.75 0.5  0.375 0.75 0.5  0.5 0.75 0.5  0.625 0.75 0.5  0.75 0.75 0.5  0.875 0.75 0.5  1 0.75 0.5  0 0.875 0.5  0.125 0.875 0.5  0.25 0.875 0.5  0.375 0.875 0.5  0.5 0.875 0.5  0.625 0.875 0.5  0.75 0.875 0.5  0.875 0.875 0.5  1 0.875 0.5  0 1 0.5  0.125 1 0.5  0.25 1 0.5  0.375 1 0.5  0.5 1 0.5  0.625 1 0.5  0.75 1 0.5  0.875 1 0.5  1 1 0.5  0 0 0.625  0.125 0 0.625  0.25 0 0.625  0.375 0 0.625  0.5 0 0.625  0.625 0 0.625  0.75 0 0.625  0.875 0 0.625  1 0 0.625  0 0.125 0.625  0.125 0.125 0.625  0.25 0.125 0.625  0.375 0.125 0.625  0.5 0.125 0.625  0.625 0.125 0.625  0.75 0.125 0.625  0.875 0.125 0.625  1 0.125 0.625  0 0.25 0.625  0.125 0.25 0.625  0.25 0.25 0.625  0.375 0.25 0.625  0.5 0.25 0.625  0.625 0.25 0.625  0.75 0.25 0.625  0.875 0.25 0.625  1 0.25 0.625  0 0.375 0.625  0.125 0.375 0.625  0.25 0.375 0.625  0.375 0.375 0.625  0.5 0.375 0.625  0.625 0.375 0.625  0.75 0.375 0.625  0.875 0.375 0.625  1 0.375 0.625  0 0.5 0.625  0.125 0.5 0.625  0.25 0.5 0.625  0.375 0.5 0.625  0.5 0.5 0.625  0.625 0.5 0.625  0.75 0.5 0.625  0.875 0.5 0.625  1 0.5 0.625  0 0.625 0.625  0.125 0.625 0.625  0.25 0.625 0.625  0.375 0.625 0.625  0.5 0.625 0.625  0.625 0.625 0.625  0.75 0.625 0.625  0.875 0.625 0.625  1 0.625 0.625  0 0.75 0.625  0.125 0.75 0.625  0.25 0.75 0.625  0.375 0.75 0.625  0.5 0.75 0.625  0.625 0.75 0.625  0.75 0.75 0.625  0.875 0.75 0.625  1 0.75 0.625  0 0.875 0.625  0.125 0.875 0.625  0.25 0.875 0.625  0.375 0.875 0.625  0.5 0.875 0.625  0.625 0.875 0.625  0.75 0.875 0.625  0.875 0.875 0.625  1 0.875 0.625  0 1 0.625  0.125 1 0.625  0.25 1 0.625  0.375 1 0.625  0.5 1 0.625  0.625 1 0.625  0.75 1 0.625  0.875 1 0.625  1 1 0.625  0 0 0.75  0.125 0 0.75  0.25 0 0.75  0.375 0 0.75  0.5 0 0.75  0.625 0 0.75  0.75 0 0.75  0.875 0 0.75  1 0 0.75  0 0.125 0.75  0.125 0.125 0.75  0.25 0.125 0.75  0.375 0.125 0.75  0.5 0.125 0.75  0.625 0.125 0.75  0.75 0.125 0.75  0.875 0.125 0.75  1 0.125 0.75  0 0.25 0.75  0.125 0.25 0.75  0.25 0.25 0.75  0.375 0.25 0.75  0.5 0.25 0.75  0.625 0.25 0.75  0.75 0.25 0.75  0.875 0.25 0.75  1 0.25 0.75  0 0.375 0.75  0.125 0.375 0.75  0.25 0.375 0.75  0.375 0.375 0.75  0.5 0.375 0.75  0.625 0.375 0.75  0.75 0.375 0.75  0.875 0.375 0.75  1 0.375 0.75  0 0.5 0.75  0.125 0.5 0.75  0.25 0.5 0.75  0.375 0.5 0.75  0.5 0.5 0.75  0.625 0.5 0.75  0.75 0.5 0.75  0.875 0.5 0.75  1 0.5 0.75  0 0.625 0.75  0.125 0.625 0.75  0.25 0.625 0.75  0.375 0.625 0.75  0.5 0.625 0.75  0.625 0.625 0.75  0.75 0.625 0.75  0.875 0.625 0.75  1 0.625 0.75  0 0.75 0.75  0.125 0.75 0.75  0.25 0.75 0.75  0.375 0.75 0.75  0.5 0.75 0.75  0.625 0.75 0.75  0.75 0.75 0.75  0.875 0.75 0.75  1 0.75 0.75  0 0.875 0.75  0.125 0.875 0.75  0.25 0.875 0.75  0.375 0.875 0.75  0.5 0.875 0.75  0.625 0.875 0.75  0.75 0.875 0.75  0.875 0.875 0.75  1 0.875 0.75  0 1 0.75  0.125 1 0.75  0.25 1 0.75  0.375 1 0.75  0.5 1 0.75  0.625 1 0.75  0.75 1 0.75  0.875 1 0.75  1 1 0.75  0 0 0.875  0.125 0 0.875  0.25 0 0.875  0.375 0 0.875  0.5 0 0.875  0.625 0 0.875  0.75 0 0.875  0.875 0 0.875  1 0 0.875  0 0.125 0.875  0.125 0.125 0.875  0.25 0.125 0.875  0.375 0.125 0.875  0.5 0.125 0.875  0.625 0.125 0.875  0.75 0.125 0.875  0.875 0.125 0.875  1 0.125 0.875  0 0.25 0.875  0.125 0.25 0.875  0.25 0.25 0.875  0.375 0.25 0.875  0.5 0.25 0.875  0.625 0.25 0.875  0.75 0.25 0.875  0.875 0.25 0.875  1 0.25 0.875  0 0.375 0.875  0.125 0.375 0.875  0.25 0.375 0.875  0.375 0.375 0.875  0.5 0.375 0.875  0.625 0.375 0.875  0.75 0.375 0.875  0.875 0.375 0.875  1 0.375 0.875  0 0.5 0.875  0.125 0.5 0.875  0.25 0.5 0.875  0.375 0.5 0.875  0.5 0.5 0.875  0.625 0.5 0.875  0.75 0.5 0.875  0.875 0.5 0.875  1 0.5 0.875  0 0.625 0.875  0.125 0.625 0.875  0.25 0.625 0.875  0.375 0.625 0.875  0.5 0.625 0.875  0.625 0.625 0.875  0.75 0.625 0.875  0.875 0.625 0.875  1 0.625 0.875  0 0.75 0.875  0.125 0.75 0.875  0.25 0.75 0.875  0.375 0.75 0.875  0.5 0.75 0.875  0.625 0.75 0.875  0.75 0.75 0.875  0.875 0.75 0.875  1 0.75 0.875  0 0.875 0.875  0.125 0.875 0.875  0.25 0.875 0.875  0.375 0.875 0.875  0.5 0.875 0.875  0.625 0.875 0.875  0.75 0.875 0.875  0.
[...]
<PointData  Vectors="f_25"> 
<DataArray  type="Float64"  Name="mode1"  NumberOfComponents="3" format="ascii"> -0.0172004953127 -0.0172004953127 0.0 -0.017249438381 -0.0172826958816 0.0 -0.016933211212 -0.0180084681096 0.0 -0.0159943273546 -0.0193057268544 0.0 -0.0142557592812 -0.020951639886 0.0 -0.0116509234968 -0.0226659294707 0.0 -0.00824780314589 -0.024150365597 0.0 -0.00425850078743 -0.0251240033893 0.0 6.07151605963e-22 -0.0253347860441 0.0 -0.0172826958816 -0.017249438381 0.0 -0.0171138504163 -0.0171138504163 0.0 -0.0165637201073 -0.0177835212602 0.0 -0.0154412237815 -0.0191059633801 0.0 -0.0136221513859 -0.0208243224549 0.0 -0.0110558727493 -0.0226326078789 0.0 -0.00779566280529 -0.0242112019324 0.0 -0.00401664801004 -0.025265425012 0.0 0.0 -0.0255722664499 0.0 -0.0180084681096 -0.016933211212 0.0 -0.0177835212602 -0.0165637201073 0.0 -0.0171690118879 -0.0171690118879 0.0 -0.0159743207884 -0.0184939503086 0.0 -0.0140775385776 -0.0202540526003 0.0 -0.0114201553128 -0.0221327009543 0.0 -0.00804524665764 -0.0237958601305 0.0 -0.00413300605495 -0.0249285956511 0.0 0.0 -0.0252964884474 0.0 -0.0193057268544 -0.0159943273546 0.0 -0.0191059633801 -0.0154412237815 0.0 -0.0184939503086 -0.0159743207884 0.0 -0.0172774305523 -0.0172774305523 0.0 -0.0153060910592 -0.0190486033802 0.0 -0.012483781727 -0.0209709801843 0.0 -0.00882981605462 -0.0227023442785 0.0 -0.00454207086261 -0.0239029066573 0.0 0.0 -0.0243093156531 0.0 -0.020951639886 -0.0142557592812 0.0 -0.0208243224549 -0.0136221513859 0.0 -0.0202540526003 -0.0140775385776 0.0 -0.0190486033802 -0.0153060910592 0.0 -0.0170184832432 -0.0170184832432 0.0 -0.0140051059017 -0.0189144799719 0.0 -0.00998111418653 -0.0206572366077 0.0 -0.00516003479354 -0.0218901456649 0.0 0.0 -0.0223202355003 0.0 -0.0226659294707 -0.0116509234968 0.0 -0.0226326078789 -0.0110558727493 0.0 -0.0221327009543 -0.0114201553128 0.0 -0.0209709801843 -0.012483781727 0.0 -0.0189144799719 -0.0140051059017 0.0 -0.0157273757719 -0.0157273757719 0.0 -0.0113115052003 -0.0173477347376 0.0 -0.00588688578664 -0.0185236690985 0.0 0.0 -0.0189511965113 0.0 -0.024150365597 -0.00824780314589 0.0 -0.0242112019324 -0.00779566280529 0.0 -0.0237958601305 -0.00804524665764 0.0 -0.0227023442785 -0.00882981605462 0.0 -0.0206572366077 -0.00998111418653 0.0 -0.0173477347376 -0.0113115052003 0.0 -0.0125917572972 -0.0125917572972 0.0 -0.0065963973399 -0.0135484063857 0.0 0.0 -0.0139167349446 0.0 -0.0251240033893 -0.00425850078743 0.0 -0.025265425012 -0.00401664801004 0.0 -0.0249285956511 -0.00413300605495 0.0 -0.0239029066573 -0.00454207086261 0.0 -0.0218901456649 -0.00516003479354 0.0 -0.0185236690985 -0.00588688578664 0.0 -0.0135484063857 -0.0065963973399 0.0 -0.00714460723017 -0.00714460723017 0.0 0.0 -0.00736923699476 0.0 -0.0253347860441 0.0 0.0 -0.0255722664499 0.0 0.0 -0.0252964884474 0.0 0.0 -0.0243093156531 0.0 0.0 -0.0223202355003 0.0 0.0 -0.0189511965113 0.0 0.0 -0.0139167349446 0.0 0.0 -0.00736923699476 0.0 0.0 0.0 0.0 0.0 -0.0166217362313 -0.0166217362313 0.00109230435543 -0.0168139522934 -0.0166494289597 0.000404394892039 -0.0166141205175 -0.0173585031493 -0.000208366551901 -0.0157796844602 -0.018638751647 -0.000798418904943 -0.0141359844711 -0.0202675740329 -0.00135829599488 -0.0116133559788 -0.0219701279659 -0.00185844372819 -0.00827224702576 -0.0234530225396 -0.00225541543812 -0.00431122334119 -0.0244375931293 -0.00250615378046 0.0 -0.0246471029923 -0.00257936578779 -0.0166494289597 -0.0168139522934 0.000404394892039 -0.0166864600772 -0.0166864600772 -0.000289741405078 -0.0162370627489 -0.0173385838528 -0.000924012961544 -0.0151929974057 -0.0186476494887 -0.0015508791338 -0.0134491453265 -0.0203577027554 -0.00215622368572 -0.0109572081759 -0.0221634501105 -0.00270257871662 -0.0077639836941 -0.0237462326104 -0.00313695180579 -0.00402931177726 -0.0248150970706 -0.00340501355939 0.0 -0.0251743580173 -0.00346483625318 -0.0173585031493 -0.0166141205175 -0.000208366551901 -0.0173385838528 -0.0162370627489 -0.000924012961544 -0.0168316887248 -0.0168316887248 -0.00161240286057 -0.0157183434952 -0.0181501490997 -0.00233092902087 -0.0138994658734 -0.0199105141799 -0.00305330354467 -0.0113209283884 -0.0217959128751 -0.00372800064577 -0.00801849577186 -0.0234707043754 -0.00427865827895 -0.00415327396449 -0.0246219730204 -0.00462212851149 0.0 -0.0250431485152 -0.00469368160361 -0.018638751647 -0.0157796844602 -0.000798418904943 -0.0186476494887 -0.0151929974057 -0.0015508791338 -0.0181501490997 -0.0157183434952 -0.00233092902087 -0.0170259499979 -0.0170259499979 -0.00319023788721 -0.0151443888039 -0.018811554996 -0.00409413445661 -0.0124116966921 -0.0207566928258 -0.00497535614729 -0.00883596516906 -0.0225141989606 -0.00572220735734 -0.004588965949 -0.0237406884167 -0.00620361680096 0.0 -0.0241904564314 -0.00632194174279 -0.0202675740329 -0.0141359844711 -0.00135829599488 -0.0203577027554 -0.0134491453265 -0.00215622368572 -0.0199105141799 -0.0138994658734 -0.00305330354467 -0.018811554996 -0.0151443888039 -0.00409413445661 -0.0168891461011 -0.0168891461011 -0.00523738699918 -0.0139824136166 -0.0188305869573 -0.00640278082062 -0.0100447477141 -0.0206230607542 -0.00743289214099 -0.00525156668689 -0.0218977624231 -0.00812476352597 0.0 -0.0223645495249 -0.00833316534722 -0.0219701279659 -0.0116133559788 -0.00185844372819 -0.0221634501105 -0.0109572081759 -0.00270257871662 -0.0217959128751 -0.0113209283884 -0.00372800064577 -0.0207566928258 -0.0124116966921 -0.00497535614729 -0.0188305869573 -0.0139824136166 -0.00640278082062 -0.015774423346 -0.015774423346 -0.00792111518146 -0.0114577848199 -0.017473742782 -0.00931669601499 -0.00604280501123 -0.0187170527765 -0.0102873701559 0.0 -0.0191919185702 -0.0106287580481 -0.0234530225396 -0.00827224702576 -0.00225541543812 -0.0237462326104 -0.0077639836941 -0.00313695180579 -0.0234707043754 -0.00801849577186 -0.00427865827895 -0.0225141989606 -0.00883596516906 -0.00572220735734 -0.0206230607542 -0.0100447477141 -0.00743289214099 -0.017473742782 -0.0114577848199 -0.00931669601499 -0.0128367857729 -0.0128367857729 -0.0111090312644 -0.00683197520391 -0.0138842846121 -0.0123923077827 0.0 -0.0143266238194 -0.0128907337209 -0.0244375931293 -0.00431122334119 -0.00250615378046 -0.0248150970706 -0.00402931177726 -0.00340501355939 -0.0246219730204 -0.00415327396449 -0.00462212851149 -0.0237406884167 -0.004588965949 -0.00620361680096 -0.0218977624231 -0.00525156668689 -0.00812476352597 -0.0187170527765 -0.00604280501123 -0.0102873701559 -0.0138842846121 -0.00683197520391 -0.0123923077827 -0.0074575833445 -0.0074575833445 -0.0139430998573 0.0 -0.00775975668862 -0.0145876212941 -0.0246471029923 0.0 -0.00257936578779 -0.0251743580173 0.0 -0.00346483625318 -0.0250431485152 0.0 -0.00469368160361 -0.0241904564314 0.0 -0.00632194174279 -0.0223645495249 0.0 -0.00833316534722 -0.0191919185702 0.0 -0.0106287580481 -0.0143266238194 0.0 -0.0128907337209 -0.00775975668862 0.0 -0.0145876212941 0.0 0.0 -0.0153962639605 -0.015641717269 -0.015641717269 0.00208231084999 -0.0158711787789 -0.0156936647 0.000811865255251 -0.0157661313204 -0.0164048124698 -0.000390035323561 -0.0150536127648 -0.0176890434317 -0.00154686522068 -0.0135519656874 -0.0193267150448 -0.00264262999817 -0.0111832264874 -0.0210459537405 -0.00362215517831 -0.00799784425118 -0.0225520126031 -0.0044028791224 -0.00418407781847 -0.0235635508294 -0.00490688080163 0.0 -0.0238019454544 -0.00511305115646 -0.0156936647 -0.0158711787789 0.000811865255251 -0.0157640304081 -0.0157640304081 -0.000436718520597 -0.0154145672132 -0.0164266063968 -0.00168789124071 -0.0144929826646 -0.0177518964609 -0.00292506451173 -0.0128878619876 -0.019485966252 -0.00411722975412 -0.0105431910144 -0.0213247648778 -0.00519438350196 -0.00749747140557 -0.0229446929328 -0.00605497563964 -0.00390347429786 -0.0240471075983 -0.00659507631006 0.0 -0.0244303783551 -0.00673731077542 -0.0164048124698 -0.0157661313204 -0.000390035323561 -0.0164266063968 -0.0154145672132 -0.00168789124071 -0.0160410557179 -0.0160410557179 -0.00306189382444 -0.0150668201721 -0.01739924459 -0.00448662417086 -0.0133975168176 -0.0192118322053 -0.00591631316141 -0.010965870808 -0.0211613804176 -0.00725444927351 -0.00779729560946 -0.0228999895657 -0.00835116807435 -0.00404999171175 -0.0240985521865 -0.00904487754061 0.0 -0.02454566218 -0.00922071724799 -0.0176890434317 -0.0150536127648 -0.00154686522068 -0.0177518964609 -0.0144929826646 -0.00292506451173 -0.01739924459 -0.0150668201721 -0.00448662417086 -0.0164446037942 -0.0164446037942 -0.00619698574016 -0.0147392410921 -0.0183244726675 -0.00799724814028 -0.0121609582141 -0.0203835018665 -0.00975987224374 -0.00869989181233 -0.0222502739037 -0.0112590185791 -0.00453110798661 -0.0235485960116 -0.0122332411182 0.0 -0.0240196079198 -0.0125038689101 -0.0193267150448 -0.0135519656874 -0.00264262999817 -0.019485966252 -0.0128878619876 -0.00411722975412 -0.0192118322053 -0.0133975168176 -0.00591631316141 -0.0183244726675 -0.0147392410921 -0.00799724814028 -0.0166223182422 -0.0166223182422 -0.010293014884 -0.013889366284 -0.0187356826226 -0.0126517551121 -0.0100427704068 -0.020695716854 -0.0147443262165 -0.00526830902457 -0.0220788789846 -0.0161522096177 0.0 -0.0225662140745 -0.0165967051257 -0.0210459537405 -0.0111832264874 -0.00362215517831 -0.0213247648778 -0.0105431910144 -0.00519438350196 -0.0211613804176 -0.010965870808 -0.00725444927351 -0.0203835018665 -0.0121609582141 -0.00975987224374 -0.0187356826226 -0.013889366284 -0.0126517551121 -0.0158872671372 -0.0158872671372 -0.015766824317 -0.0116377658285 -0.0177980174023 -0.0186435141626 -0.00616339794535 -0.0191876690307 -0.0206360592933 0.0 -0.0196990340813 -0.0213357667309 -0.0225520126031 -0.00799784425118 -0.0044028791224 -0.0229446929328 -0.00749747140557 -0.00605497563964 -0.0228999895657 -0.00779729560946 -0.00835116807435 -0.0222502739037 -0.00869989181233 -0.0112590185791 -0.020695716854 -0.0100427704068 -0.0147443262165 -0.0177980174023 -0.0116377658285 -0.0186435141626 -0.0132170266194 -0.0132170266194 -0.0223833160293 -0.00707180278102 -0.0144190956208 -0.0250460944577 0.0 -0.0149239693596 -0.0260610183958 -0.0235635508294 -0.00418407781847 -0.00490688080163 -0.0240471075983 -0.00390347429786 -0.00659507631006 -0.0240985521865 -0.00404999171175 -0.00904487754061 -0.0235485960116 -0.00453110798661 -0.0122332411182 -0.0220788789846 -0.00526830902457 -0.0161522096177 -0.0191876690307 -0.00616339794535 -0.0206360592933 -0.0144190956208 -0.00707180278102 -0.0250460944577 -0.00780102588038 -0.00780102588038 -0.0282949692365 0.0 -0.00816552941217 -0.0296296461725 -0.0238019454544 0.0 -0.00511305115646 -0.0244303783551 0.0 -0.00673731077542 -0.02454566218 0.0 -0.00922071724799 -0.0240196079198 0.0 -0.0125038689101 -0.0225662140745 0.0 -0.0165967051257 -0.0196990340813 0.0 -0.0213357667309 -0.0149239693596 0.0 -0.0260610183958 -0.00816552941217 0.0 -0.0296296461725 0.0 0.0 -0.0313632153122 -0.0141322617345 -0.0141322617345 0.00305299078018 -0.0144011522038 -0.0142153952183 0.0012525823439 -0.014379658059 -0.0149404173105 -0.000463618582426 -0.0138076191961 -0.0162224423484 -0.00211850028659 -0.0124985391926 -0.0178558220381 -0.00368417076246 -0.010363797507 -0.0195791309264 -0.00508327510989 -0.00744086682445 -0.0210979675238 -0.00619946630659 -0.00390550824905 -0.0221277222047 -0.00692469063384 0.0 -0.022386307798 -0.00723734839646 -0.0142153952183 -0.0144011522038 0.0012525823439 -0.0143316479795 -0.0143316479795 -0.000535214605099 -0.0140767852846 -0.0150215626174 -0.00233651074111 -0.013306706284 -0.0163632185129 -0.00412806104911 -0.0118972611052 -0.0181157479399 -0.00585860501746 -0.00977904930007 -0.0199839984494 -0.00742663544315 -0.006979157749 -0.0216394615429 -0.00868418131407 -0.00364225229004 -0.0227738271467 -0.00948238883149 0.0 -0.0231866792131 -0.00971677768482 -0.0149404173105 -0.014379658059 -0.000463618582426 -0.0150215626174 -0.0140767852846 -0.00233651074111 -0.0147505249397 -0.0147505249397 -0.00432560162526 -0.0139542561068 -0.0161574543638 -0.00640217249868 -0.0125007683712 -0.0180312594666 -0.00849564541017 -0.0102964323598 -0.0200592065432 -0.0104652642488 -0.00735214377324 -0.0218756169546 -0.0120853037153 -0.00382668063413 -0.0231262700631 -0.013117831287 0.0 -0.0235943293822 -0.0134022243665 -0.0162224423484 -0.0138076191961 -0.00211850028659 -0.0163632185129 -0.013306706284 -0.00412806104911 -0.0161574543638 -0.0139542561068 -0.00640217249868 -0.0154292761582 -0.0154292761582 -0.00891410844445 -0.0139851485676 -0.0174410079999 -0.0115800742921 -0.0116474965351 -0.0196650224014 -0.0142143154241 -0.00837970647028 -0.0216883194417 -0.0164611207709 -0.00437234926785 -0.0230797600107 -0.0179210897022 0.0 -0.0235658269254 -0.0183416330175 -0.0178558220381 -0.0124985391926 -0.00368417076246 -0.0181157479399 -0.0118972611052 -0.00585860501746 -0.0180312594666 -0.0125007683712 -0.00849564541017 -0.0174410079999 -0.0139851485676 -0.0115800742921 -0.0160801283441 -0.0160801283441 -0.0150303200621 -0.013624892741 -0.0184688872989 -0.0186320210075 -0.0099310502112 -0.0206954407445 -0.0218373806419 -0.00522076475015 -0.0222372285334 -0.0239739989379 0.0 -0.0227402704048 -0.0246388273998 -0.0195791309264 -0.010363797507 -0.00508327510989 -0.0199839984494 -0.00977904930007 -0.00742663544315 -0.0200592065432 -0.0102964323598 -0.0104652642488 -0.0196650224014 -0.0116474965351 -0.0142143154241 -0.0184688872989 -0.013624892741 -0.0186320210075 -0.0159687999618 -0.0159687999618 -0.0235111468413 -0.0118307575681 -0.0182381938075 -0.0280384463872 -0.00628253474455 -0.01986088592 -0.0311146060528 0.0 -0.0204192143976 -0.0321375917349 -0.0210979675238 -0.00744086682445 -0.00619946630659 -0.0216394615429 -0.006979157749 -0.00868418131407 -0.0218756169546 -0.00735214377324 -0.0120853037153 -0.0216883194417 -0.00837970647028 -0.0164611207709 -0.0206954407445 -0.0099310502112 -0.0218373806419 -0.0182381938075 -0.0118307575681 -0.0280384463872 -0.0137574694203 -0.0137574694203 -0.034051297823 -0.0073927590408 -0.0152168351283 -0.0382420831943 0.0 -0.0158177701767 -0.039743005871 -0.0221277222047 -0.00390550824905 -0.00692469063384 -0.0227738271467 -0.00364225229004 -0.00948238883149 -0.0231262700631 -0.00382668063413 -0.013117831287 -0.0230797600107 -0.00437234926785 -0.0179210897022 -0.0222372285334 -0.00522076475015 -0.0239739989379 -0.01986088592 -0.00628253474455 -0.0311146060528 -0.0152168351283 -0.0073927590408 -0.0382420831943 -0.0082965653015 -0.0082965653015 -0.0434289569156 0.0 -0.00875635820573 -0.0454612219268 -0.022386307798 0.0 -0.00723734839646 -0.0231866792131 0.0 -0.00971677768482 -0.0235943293822 0.0 -0.0134022243665 -0.0235658269254 0.0 -0.0183416330175 -0.0227402704048 0.0 -0.0246388273998 -0.0204192143976 0.0 -0.0321375917349 -0.0158177701767 0.0 -0.039743005871 -0.00875635820573 0.0 -0.0454612219268 0.0 0.0 -0.0481967719801 -0.0120612553338 -0.0120612553338 0.00396944232181 -0.0123591284819 -0.0121731953312 0.00170106889254 -0.0124140130598 -0.0128838042744 -0.000441656934838 -0.0119939556103 -0.0141137751247 -0.00249847590597 -0.0109229501809 -0.0156792371328 -0.00444059681151 -0.00910633212331 -0.0173413937453 -0.00617416252274 -0.00656686062845 -0.0188142958412 -0.00755627514305 -0.00346020577789 -0.0198179917593 -0.00845400376746 0.0 -0.020079171999 -0.0088338146462 -0.0121731953312 -0.0123591284819 0.00170106889254 -0.0123366809054 -0.0123366809054 -0.000589705873331 -0.0121817414288 -0.0130296794275 -0.00286653963181 -0.0115846013914 -0.0143385810358 -0.00513042249129 -0.0104220343735 -0.0160463988541 -0.00732494854052 -0.00861357570809 -0.0178805604373 -0.00932087749118 -0.00617331516458 -0.019514932847 -0.0109277015184 -0.00323135323002 -0.0206389131255 -0.011957430892 0.0 -0.0210658357547 -0.0122810786242 -0.0128838042744 -0.0124140130598 -0.000441656934838 -0.0130296794275 -0.0121817414288 -0.00286653963181 -0.0128821858995 -0.0128821858995 -0.00539471816016 -0.0122906385067 -0.0142916990776 -0.00803630638932 -0.0111115330447 -0.0161698351621 -0.0107188498075 -0.00922269999085 -0.0182233869205 -0.0132611778664 -0.00661875833973 -0.020070326514 -0.0153605062723 -0.00345457320401 -0.0213348283421 -0.0167092017206 0.0 -0.0218101738186 -0.0171084513176 -0.0141137751247 -0.0119939556103 -0.00249847590597 -0.0143385810358 -0.0115846013914 -0.00513042249129 -0.0142916990776 -0.0122906385067 -0.00803630638932 -0.0138268908052 -0.0138268908052 -0.0112570167754 -0.0127206033707 -0.0159362747976 -0.0147205181376 -0.0107236875636 -0.0183074598347 -0.0181888501324 -0.0077674201019 -0.0204696752976 -0.0211540728436 -0.00406208332262 -0.0219261713008 -0.0230771948819 0.0 -0.0224085682022 -0.0236478914704 -0.0156792371328 -0.0109229501809 -0.00444059681151 -0.0160463988541 -0.0104220343735 -0.00732494854052 -0.0161698351621 -0.0111115330447 -0.0107188498075 -0.0159362747976 -0.0127206033707 -0.0147205181376 -0.0150376012188 -0.0150376012188 -0.0192944069237 -0.0129928669697 -0.0177582073431 -0.0241873771491 -0.00956550341185 -0.0203037242035 -0.0285490564343 -0.00503782958133 -0.0220047950171 -0.0314081538926 0.0 -0.0224944517439 -0.0322721978949 -0.0173413937453 -0.00910633212331 -0.00617416252274 -0.0178805604373 -0.00861357570809 -0.00932087749118 -0.0182233869205 -0.00922269999085 -0.0132611778664 -0.0183074598347 -0.0107236875636 -0.0181888501324 -0.0177582073431 -0.0129928669697 -0.0241873771491 -0.0158122769492 -0.0158122769492 -0.0310869230834 -0.0118977341378 -0.0185886727081 -0.0375077533226 -0.00632987840317 -0.0205052262648 -0.0417208215009 0.0 -0.0210921079525 -0.0429937623227 -0.0188142958412 -0.00656686062845 -0.00755627514305 -0.019514932847 -0.00617331516458 -0.0109277015184 -0.020070326514 -0.00661875833973 -0.0153605062723 -0.0204696752976 -0.0077674201019 -0.0211540728436 -0.0203037242035 -0.00956550341185 -0.0285490564343 -0.0185886727081 -0.0118977341378 -0.0375077533226 -0.0143587181732 -0.0143587181732 -0.0463114114506 -0.00775497143106 -0.0161905134782 -0.05221867415 0.0 -0.0169075505876 -0.0541282664959 -0.0198179917593 -0.00346020577789 -0.00845400376746 -0.0206389131255 -0.00323135323002 -0.011957430892 -0.0213348283421 -0.00345457320401 -0.0167092017206 -0.0219261713008 -0.00406208332262 -0.0230771948819 -0.0220047950171 -0.00503782958133 -0.0314081538926 -0.0205052262648 -0.00632987840317 -0.0417208215009 -0.0161905134782 -0.00775497143106 -0.05221867415 -0.00893234863261 -0.00893234863261 -0.0596881110212 0.0 -0.00952377711811 -0.0624086743153 -0.020079171999 0.0 -0.0088338146462 -0.0210658357547 0.0 -0.0122810786242 -0.0218101738186 0.0 -0.0171084513176 -0.0224085682022 0.0 -0.0236478914704 -0.0224944517439 0.0 -0.0322721978949 -0.0210921079525 0.0 -0.0429937623227 -0.0169075505876 0.0 -0.0541282664959 -0.00952377711811 0.0 -0.0624086743153 0.0 0.0 -0.0662605494967 -0.0094521516502 -0.0094521516502 0.0047230687957 -0.00974829975071 -0.0095813534241 0.00207921992516 -0.00985690766761 -0.0102174132326 -0.000393001549568 -0.00958599114815 -0.0113000202288 -0.00275036846227 -0.00878559624631 -0.0126806225949 -0.00496860172073 -0.00736702812974 -0.0141588693118 -0.006945094674 -0.00534022727168 -0.0154721566712 -0.00852149715691 -0.00282908313947 -0.0163628190526 -0.00954610590035 0.0 -0.0165876769587 -0.0099592391174 -0.0095813534241 -0.00974829975071 0.00207921992516 -0.00977528517619 -0.00977528517619 -0.000638292227351 -0.0097138526283 -0.0104123100549 -0.00330145634535 -0.00929877256652 -0.0115862907984 -0.00594468855923 -0.00842179332072 -0.0131220909533 -0.00851487321327 -0.00700275190998 -0.0147889326953 -0.0108619744692 -0.00504490861468 -0.016278611674 -0.0127617826189 -0.00265335268783 -0.0172983632211 -0.0139956051807 0.0 -0.0176944281578 -0.0144111655145 -0.0102174132326 -0.00985690766761 -0.000393001549568 -0.0104123100549 -0.0097138526283 -0.00330145634535 -0.0103789311804 -0.0103789311804 -0.00627463600424 -0.00999675615988 -0.0116773453913 -0.00937701646491 -0.00913017078208 -0.0134187575746 -0.0125503153039 -0.00764311856931 -0.0153542964191 -